Written by MDAnalysis
127573
    1POPC   NC3    1  24.854  21.143   7.657
    1POPC   PO4    2  24.917  20.942   7.360
    1POPC   GL1    3  24.793  20.783   7.031
    1POPC   GL2    4  25.060  20.836   6.908
    1POPC   C1A    5  24.482  20.871   6.726
    1POPC   D2A    6  24.242  20.630   6.388
    1POPC   C3A    7  24.415  20.429   6.019
    1POPC   C4A    8  24.377  20.111   5.626
    1POPC   C1B    9  24.934  20.867   6.579
    1POPC   C2B   10  24.709  20.885   6.230
    1POPC   C3B   11  24.617  21.044   5.779
    1POPC   C4B   12  24.505  21.239   5.381
    2POPC   NC3   13  11.145  25.477   6.820
    2POPC   PO4   14  11.157  25.084   6.906
    2POPC   GL1   15  11.230  24.893   6.528
    2POPC   GL2   16  11.149  25.147   6.495
    2POPC   C1A   17  11.542  24.711   6.280
    2POPC   D2A   18  11.863  24.333   6.253
    2POPC   C3A   19  12.159  24.474   5.884
    2POPC   C4A   20  12.509  24.541   5.539
    2POPC   C1B   21  11.202  24.993   6.120
    2POPC   C2B   22  11.178  24.767   5.768
    2POPC   C3B   23  11.385  24.454   5.565
    2POPC   C4B   24  11.769  24.127   5.451
    3POPC   NC3   25  24.733  10.298   7.662
    3POPC   PO4   26  24.364  10.187   7.600
    3POPC   GL1   27  24.395   9.988   7.259
    3POPC   GL2   28  24.347   9.685   7.351
    3POPC   C1A   29  24.695   9.985   6.977
    3POPC   D2A   30  24.638  10.391   6.702
    3POPC   C3A   31  24.810  10.723   6.473
    3POPC   C4A   32  25.029  10.875   6.062
    3POPC   C1B   33  24.399   9.555   6.991
    3POPC   C2B   34  24.339   9.609   6.581
    3POPC   C3B   35  24.562   9.943   6.356
    3POPC   C4B   36  24.520  10.426   6.168
    4POPC   NC3   37   3.201  33.216   7.642
    4POPC   PO4   38   3.261  33.564   7.643
    4POPC   GL1   39   3.498  33.674   7.335
    4POPC   GL2   40   3.354  33.959   7.260
    4POPC   C1A   41   3.611  33.512   6.898
    4POPC   D2A   42   3.755  33.513   6.465
    4POPC   C3A   43   3.560  33.192   6.184
    4POPC   C4A   44   3.119  32.937   6.227
    4POPC   C1B   45   3.519  34.080   6.981
    4POPC   C2B   46   3.421  34.373   6.700
    4POPC   C3B   47   3.622  34.431   6.310
    4POPC   C4B   48   4.076  34.397   6.088
    5POPC   NC3   49   9.361  18.229   7.621
    5POPC   PO4   50   9.346  17.968   7.332
    5POPC   GL1   51   9.156  17.598   7.178
    5POPC   GL2   52   8.993  17.879   7.041
    5POPC   C1A   53   9.218  17.339   6.742
    5POPC   D2A   54   9.499  17.334   6.308
    5POPC   C3A   55   9.359  17.211   5.923
    5POPC   C4A   56   9.648  17.023   5.560
    5POPC   C1B   57   8.944  18.120   6.798
    5POPC   C2B   58   8.979  18.275   6.405
    5POPC   C3B   59   8.879  18.386   5.898
    5POPC   C4B   60   8.995  18.221   5.428
    6POPC   NC3   61  17.937  31.335   7.174
    6POPC   PO4   62  17.928  31.499   6.810
    6POPC   GL1   63  17.967  31.431   6.465
    6POPC   GL2   64  18.225  31.513   6.437
    6POPC   C1A   65  17.770  31.509   6.136
    6POPC   D2A   66  17.887  31.427   5.732
    6POPC   C3A   67  17.577  31.330   5.374
    6POPC   C4A   68  17.462  31.188   4.890
    6POPC   C1B   69  18.286  31.449   6.119
    6POPC   C2B   70  18.369  31.496   5.702
    6POPC   C3B   71  18.367  31.631   5.222
    6POPC   C4B   72  18.289  31.870   4.827
    7POPC   NC3   73   9.444   2.692   7.334
    7POPC   PO4   74   9.809   2.762   7.180
    7POPC   GL1   75   9.735   2.608   6.744
    7POPC   GL2   76  10.046   2.601   6.757
    7POPC   C1A   77   9.623   2.460   6.316
    7POPC   D2A   78   9.353   2.448   5.932
    7POPC   C3A   79   9.398   2.576   5.501
    7POPC   C4A   80   9.545   2.719   5.010
    7POPC   C1B   81  10.234   2.697   6.474
    7POPC   C2B   82  10.259   2.686   6.023
    7POPC   C3B   83  10.275   2.481   5.560
    7POPC   C4B   84  10.290   2.356   5.084
    8POPC   NC3   85  17.651   0.364   7.988
    8POPC   PO4   86  17.395   0.371   7.655
    8POPC   GL1   87  17.509   0.525   7.246
    8POPC   GL2   88  17.310   0.744   7.231
    8POPC   C1A   89  17.558   0.336   6.869
    8POPC   D2A   90  17.304  -0.003   6.649
    8POPC   C3A   91  17.099   0.240   6.291
    8POPC   C4A   92  16.955   0.639   6.067
    8POPC   C1B   93  17.362   0.728   6.906
    8POPC   C2B   94  17.453   0.693   6.509
    8POPC   C3B   95  17.632   0.380   6.158
    8POPC   C4B   96  17.659   0.351   5.685
    9POPC   NC3   97  23.262  12.752   7.839
    9POPC   PO4   98  23.397  12.906   7.496
    9POPC   GL1   99  23.634  12.796   7.246
    9POPC   GL2  100  23.548  12.956   7.030
    9POPC   C1A  101  24.061  12.668   7.180
    9POPC   D2A  102  24.402  12.793   6.905
    9POPC   C3A  103  24.596  12.756   6.463
    9POPC   C4A  104  24.675  12.743   5.994
    9POPC   C1B  105  23.592  12.812   6.682
    9POPC   C2B  106  23.780  12.555   6.404
    9POPC   C3B  107  24.253  12.464   6.286
    9POPC   C4B  108  24.656  12.251   6.056
   10POPC   NC3  109  31.303   0.447   7.433
   10POPC   PO4  110  31.216   0.821   7.301
   10POPC   GL1  111  31.311   0.827   7.043
   10POPC   GL2  112  31.513   0.698   6.888
   10POPC   C1A  113  31.223   1.191   6.770
   10POPC   D2A  114  31.266   1.388   6.282
   10POPC   C3A  115  31.156   1.551   5.841
   10POPC   C4A  116  31.066   1.582   5.320
   10POPC   C1B  117  31.440   0.672   6.556
   10POPC   C2B  118  31.397   0.677   6.186
   10POPC   C3B  119  31.341   0.630   5.747
   10POPC   C4B  120  31.599   0.368   5.438
   11POPC   NC3  121   4.501   5.931   7.623
   11POPC   PO4  122   4.660   6.079   7.311
   11POPC   GL1  123   4.451   6.128   7.019
   11POPC   GL2  124   4.252   6.333   7.031
   11POPC   C1A  125   4.587   6.195   6.559
   11POPC   D2A  126   4.714   6.102   6.057
   11POPC   C3A  127   5.110   6.290   5.831
   11POPC   C4A  128   5.555   6.174   5.636
   11POPC   C1B  129   4.117   6.276   6.683
   11POPC   C2B  130   4.148   6.253   6.239
   11POPC   C3B  131   4.039   6.242   5.774
   11POPC   C4B  132   3.890   6.264   5.296
   12POPC   NC3  133  12.065  28.061   7.325
   12POPC   PO4  134  11.715  28.251   7.267
   12POPC   GL1  135  11.542  28.449   6.814
   12POPC   GL2  136  11.578  28.152   6.827
   12POPC   C1A  137  11.503  28.561   6.414
   12POPC   D2A  138  11.572  28.701   5.917
   12POPC   C3A  139  11.281  28.791   5.585
   12POPC   C4A  140  11.008  29.077   5.329
   12POPC   C1B  141  11.612  28.086   6.470
   12POPC   C2B  142  11.668  28.194   6.110
   12POPC   C3B  143  11.709  28.177   5.679
   12POPC   C4B  144  11.806  28.004   5.208
   13POPC   NC3  145  11.072  28.340   6.814
   13POPC   PO4  146  11.172  28.505   7.168
   13POPC   GL1  147  11.284  28.954   7.030
   13POPC   GL2  148  11.101  28.778   6.820
   13POPC   C1A  149  11.586  28.953   6.766
   13POPC   D2A  150  11.842  29.056   6.285
   13POPC   C3A  151  11.961  29.011   5.849
   13POPC   C4A  152  11.810  28.918   5.430
   13POPC   C1B  153  11.260  28.910   6.542
   13POPC   C2B  154  11.319  29.022   6.167
   13POPC   C3B  155  11.558  29.368   5.880
   13POPC   C4B  156  11.718  29.705   5.677
   14POPC   NC3  157  25.674  16.424   7.792
   14POPC   PO4  158  26.014  16.444   7.605
   14POPC   GL1  159  26.094  16.424   7.220
   14POPC   GL2  160  26.009  16.125   7.160
   14POPC   C1A  161  26.369  16.502   6.824
   14POPC   D2A  162  26.303  16.534   6.298
   14POPC   C3A  163  26.331  16.751   5.856
   14POPC   C4A  164  26.277  16.817   5.378
   14POPC   C1B  165  25.835  15.962   6.861
   14POPC   C2B  166  25.566  16.065   6.552
   14POPC   C3B  167  25.236  16.110   6.210
   14POPC   C4B  168  25.025  16.361   5.826
   15POPC   NC3  169   2.133  29.881   7.320
   15POPC   PO4  170   1.862  30.164   7.450
   15POPC   GL1  171   1.694  30.309   7.148
   15POPC   GL2  172   1.815  30.618   7.178
   15POPC   C1A  173   1.705  30.194   6.727
   15POPC   D2A  174   1.912  29.800   6.630
   15POPC   C3A  175   1.874  29.415   6.382
   15POPC   C4A  176   1.936  29.298   5.946
   15POPC   C1B  177   1.804  30.687   6.823
   15POPC   C2B  178   1.857  30.806   6.435
   15POPC   C3B  179   1.678  30.903   6.007
   15POPC   C4B  180   1.857  30.807   5.597
   16POPC   NC3  181  21.091   4.183   6.908
   16POPC   PO4  182  20.716   4.140   6.815
   16POPC   GL1  183  20.856   3.997   6.478
   16POPC   GL2  184  21.077   3.822   6.535
   16POPC   C1A  185  20.960   4.171   6.072
   16POPC   D2A  186  21.095   4.366   5.651
   16POPC   C3A  187  21.259   4.291   5.265
   16POPC   C4A  188  21.563   4.451   4.824
   16POPC   C1B  189  21.205   3.800   6.205
   16POPC   C2B  190  21.222   3.823   5.803
   16POPC   C3B  191  21.204   3.608   5.362
   16POPC   C4B  192  21.233   3.480   4.850
   17POPC   NC3  193  14.454  26.486   7.823
   17POPC   PO4  194  14.196  26.561   7.498
   17POPC   GL1  195  14.416  26.618   7.093
   17POPC   GL2  196  14.615  26.491   7.161
   17POPC   C1A  197  14.561  26.988   6.821
   17POPC   D2A  198  14.584  27.233   6.379
   17POPC   C3A  199  14.560  27.115   5.932
   17POPC   C4A  200  14.773  26.998   5.525
   17POPC   C1B  201  14.782  26.349   6.819
   17POPC   C2B  202  14.914  26.151   6.443
   17POPC   C3B  203  14.916  26.132   5.947
   17POPC   C4B  204  14.894  25.879   5.524
   18POPC   NC3  205  27.845  21.869   7.350
   18POPC   PO4  206  27.936  21.452   7.302
   18POPC   GL1  207  28.046  21.146   7.044
   18POPC   GL2  208  28.262  21.266   6.949
   18POPC   C1A  209  27.866  20.946   6.721
   18POPC   D2A  210  27.950  20.594   6.448
   18POPC   C3A  211  27.879  20.603   5.992
   18POPC   C4A  212  27.949  20.582   5.531
   18POPC   C1B  213  28.141  21.478   6.693
   18POPC   C2B  214  28.144  21.722   6.308
   18POPC   C3B  215  28.096  21.570   5.862
   18POPC   C4B  216  27.959  21.571   5.398
   19POPC   NC3  217   5.058  20.721   8.056
   19POPC   PO4  218   5.025  20.783   7.662
   19POPC   GL1  219   5.219  21.028   7.358
   19POPC   GL2  220   5.420  20.860   7.262
   19POPC   C1A  221   5.222  21.407   7.140
   19POPC   D2A  222   5.184  21.454   6.548
   19POPC   C3A  223   5.612  21.617   6.364
   19POPC   C4A  224   5.708  22.111   6.107
   19POPC   C1B  225   5.288  20.847   6.921
   19POPC   C2B  226   5.179  20.694   6.543
   19POPC   C3B  227   5.194  20.614   6.036
   19POPC   C4B  228   5.356  20.491   5.604
   20POPC   NC3  229  17.901  20.914   8.397
   20POPC   PO4  230  17.923  21.096   8.082
   20POPC   GL1  231  18.016  20.893   7.722
   20POPC   GL2  232  17.960  21.050   7.581
   20POPC   C1A  233  17.793  20.558   7.553
   20POPC   D2A  234  17.799  20.256   7.154
   20POPC   C3A  235  17.683  20.242   6.738
   20POPC   C4A  236  17.432  20.442   6.344
   20POPC   C1B  237  17.795  20.961   7.284
   20POPC   C2B  238  17.898  20.717   6.982
   20POPC   C3B  239  18.084  20.483   6.637
   20POPC   C4B  240  18.239  20.084   6.581
   21POPC   NC3  241  19.865  31.119   8.237
   21POPC   PO4  242  19.952  31.273   7.856
   21POPC   GL1  243  19.947  31.308   7.480
   21POPC   GL2  244  20.142  31.138   7.418
   21POPC   C1A  245  20.020  31.752   7.376
   21POPC   D2A  246  20.475  31.950   7.351
   21POPC   C3A  247  20.627  32.236   7.120
   21POPC   C4A  248  20.387  31.957   6.716
   21POPC   C1B  249  20.276  31.032   7.073
   21POPC   C2B  250  20.329  30.743   6.733
   21POPC   C3B  251  20.353  30.674   6.276
   21POPC   C4B  252  20.436  30.767   5.721
   22POPC   NC3  253  18.013  14.143   6.849
   22POPC   PO4  254  17.642  14.039   6.817
   22POPC   GL1  255  17.667  14.099   6.352
   22POPC   GL2  256  17.827  13.900   6.375
   22POPC   C1A  257  17.528  14.386   5.986
   22POPC   D2A  258  17.553  14.514   5.520
   22POPC   C3A  259  17.956  14.380   5.398
   22POPC   C4A  260  18.412  14.486   5.373
   22POPC   C1B  261  17.952  13.728   6.092
   22POPC   C2B  262  18.103  13.555   5.734
   22POPC   C3B  263  18.160  13.275   5.288
   22POPC   C4B  264  18.415  12.868   5.132
   23POPC   NC3  265  33.770  24.273   7.867
   23POPC   PO4  266  33.563  23.945   7.903
   23POPC   GL1  267  33.497  23.976   7.458
   23POPC   GL2  268  33.769  23.910   7.441
   23POPC   C1A  269  33.445  24.375   7.182
   23POPC   D2A  270  33.207  24.257   6.800
   23POPC   C3A  271  33.072  24.252   6.370
   23POPC   C4A  272  32.935  24.308   5.868
   23POPC   C1B  273  33.828  23.905   7.079
   23POPC   C2B  274  33.704  24.147   6.857
   23POPC   C3B  275  33.619  24.327   6.434
   23POPC   C4B  276  33.422  24.408   5.977
   24POPC   NC3  277  21.273  19.692   8.000
   24POPC   PO4  278  21.225  19.331   7.860
   24POPC   GL1  279  21.200  19.181   7.494
   24POPC   GL2  280  21.115  19.400   7.303
   24POPC   C1A  281  21.188  18.748   7.314
   24POPC   D2A  282  20.945  18.585   6.893
   24POPC   C3A  283  20.690  18.229   6.749
   24POPC   C4A  284  20.238  17.987   6.822
   24POPC   C1B  285  21.199  19.178   7.044
   24POPC   C2B  286  21.354  18.908   6.742
   24POPC   C3B  287  21.065  18.693   6.402
   24POPC   C4B  288  20.773  18.431   6.155
   25POPC   NC3  289   2.125  12.851   7.837
   25POPC   PO4  290   2.520  12.841   7.904
   25POPC   GL1  291   2.651  13.133   7.565
   25POPC   GL2  292   2.352  13.171   7.574
   25POPC   C1A  293   2.980  13.204   7.281
   25POPC   D2A  294   3.123  13.354   6.847
   25POPC   C3A  295   3.439  13.031   6.706
   25POPC   C4A  296   3.527  12.868   6.276
   25POPC   C1B  297   2.369  13.309   7.228
   25POPC   C2B  298   2.567  13.286   6.902
   25POPC   C3B  299   2.607  13.459   6.508
   25POPC   C4B  300   2.417  13.914   6.448
   26POPC   NC3  301  31.479  16.958   7.612
   26POPC   PO4  302  31.642  16.808   7.298
   26POPC   GL1  303  31.889  16.962   6.959
   26POPC   GL2  304  32.100  16.746   7.066
   26POPC   C1A  305  31.803  17.030   6.539
   26POPC   D2A  306  31.582  16.830   6.173
   26POPC   C3A  307  31.445  17.185   5.927
   26POPC   C4A  308  31.298  17.495   5.559
   26POPC   C1B  309  32.064  16.441   6.793
   26POPC   C2B  310  31.969  16.524   6.373
   26POPC   C3B  311  31.767  16.318   5.951
   26POPC   C4B  312  31.698  16.086   5.452
   27POPC   NC3  313  35.626  26.075   7.803
   27POPC   PO4  314  35.805  26.351   7.579
   27POPC   GL1  315  35.855  26.406   7.181
   27POPC   GL2  316  35.619  26.340   7.037
   27POPC   C1A  317  36.215  26.563   6.890
   27POPC   D2A  318  36.344  26.544   6.432
   27POPC   C3A  319  36.514  26.380   6.078
   27POPC   C4A  320  36.656  26.649   5.707
   27POPC   C1B  321  35.712  26.315   6.669
   27POPC   C2B  322  35.812  26.356   6.316
   27POPC   C3B  323  36.064  26.291   5.856
   27POPC   C4B  324  36.337  26.363   5.440
   28POPC   NC3  325  20.566   7.124   7.620
   28POPC   PO4  326  20.763   7.493   7.534
   28POPC   GL1  327  20.747   7.680   7.261
   28POPC   GL2  328  20.964   7.887   7.288
   28POPC   C1A  329  20.710   7.786   6.925
   28POPC   D2A  330  20.584   7.778   6.477
   28POPC   C3A  331  20.614   7.882   6.017
   28POPC   C4A  332  20.734   7.944   5.568
   28POPC   C1B  333  21.006   8.068   6.903
   28POPC   C2B  334  20.960   8.117   6.497
   28POPC   C3B  335  20.952   8.263   6.014
   28POPC   C4B  336  20.913   8.761   5.947
   29POPC   NC3  337  10.477  31.819   7.645
   29POPC   PO4  338  10.266  32.138   7.582
   29POPC   GL1  339  10.124  32.315   7.212
   29POPC   GL2  340   9.858  32.129   7.222
   29POPC   C1A  341   9.980  32.608   6.956
   29POPC   D2A  342   9.612  32.926   6.829
   29POPC   C3A  343   9.177  32.744   6.672
   29POPC   C4A  344   8.873  32.514   6.338
   29POPC   C1B  345   9.675  32.240   6.976
   29POPC   C2B  346   9.725  32.396   6.563
   29POPC   C3B  347   9.769  32.633   6.157
   29POPC   C4B  348   9.873  32.661   5.695
   30POPC   NC3  349  27.878  26.944   7.533
   30POPC   PO4  350  27.869  27.329   7.432
   30POPC   GL1  351  27.942  27.413   6.981
   30POPC   GL2  352  28.074  27.082   6.983
   30POPC   C1A  353  27.872  27.353   6.548
   30POPC   D2A  354  27.757  27.326   6.105
   30POPC   C3A  355  27.670  27.363   5.625
   30POPC   C4A  356  27.408  27.509   5.257
   30POPC   C1B  357  27.973  26.887   6.654
   30POPC   C2B  358  27.986  26.819   6.229
   30POPC   C3B  359  28.151  27.094   5.778
   30POPC   C4B  360  28.408  27.170   5.382
   31POPC   NC3  361  14.370  16.996   8.018
   31POPC   PO4  362  14.573  17.041   7.691
   31POPC   GL1  363  14.278  16.925   7.370
   31POPC   GL2  364  14.293  17.158   7.250
   31POPC   C1A  365  14.055  16.636   7.238
   31POPC   D2A  366  13.577  16.469   7.107
   31POPC   C3A  367  13.499  16.394   6.658
   31POPC   C4A  368  13.736  16.278   6.335
   31POPC   C1B  369  14.289  17.264   6.849
   31POPC   C2B  370  14.337  17.300   6.433
   31POPC   C3B  371  14.125  17.250   5.974
   31POPC   C4B  372  13.853  16.946   5.623
   32POPC   NC3  373  10.133  30.960   7.637
   32POPC   PO4  374   9.936  31.070   7.304
   32POPC   GL1  375  10.099  31.160   6.879
   32POPC   GL2  376  10.012  31.424   6.935
   32POPC   C1A  377  10.044  31.140   6.507
   32POPC   D2A  378  10.038  31.197   5.992
   32POPC   C3A  379   9.879  31.447   5.754
   32POPC   C4A  380   9.689  31.772   5.450
   32POPC   C1B  381   9.995  31.595   6.599
   32POPC   C2B  382  10.005  31.639   6.173
   32POPC   C3B  383  10.185  31.837   5.749
   32POPC   C4B  384  10.414  32.080   5.327
   33POPC   NC3  385  27.256  15.363   7.745
   33POPC   PO4  386  27.422  15.718   7.659
   33POPC   GL1  387  27.519  15.741   7.262
   33POPC   GL2  388  27.313  15.944   7.231
   33POPC   C1A  389  27.660  15.657   6.871
   33POPC   D2A  390  27.715  15.480   6.389
   33POPC   C3A  391  27.568  15.361   5.961
   33POPC   C4A  392  27.634  15.511   5.527
   33POPC   C1B  393  27.179  16.128   6.967
   33POPC   C2B  394  26.988  16.029   6.600
   33POPC   C3B  395  26.907  15.896   6.225
   33POPC   C4B  396  26.776  15.965   5.783
   34POPC   NC3  397  19.874  23.125   7.417
   34POPC   PO4  398  19.506  23.225   7.499
   34POPC   GL1  399  19.255  23.066   7.294
   34POPC   GL2  400  19.208  23.243   7.106
   34POPC   C1A  401  18.980  22.789   7.020
   34POPC   D2A  402  18.741  22.870   6.589
   34POPC   C3A  403  18.699  22.844   6.180
   34POPC   C4A  404  18.733  23.000   5.683
   34POPC   C1B  405  19.157  23.125   6.719
   34POPC   C2B  406  19.134  23.122   6.251
   34POPC   C3B  407  19.225  23.165   5.799
   34POPC   C4B  408  19.166  23.318   5.341
   35POPC   NC3  409  33.487  35.236   7.535
   35POPC   PO4  410  33.568  34.930   7.298
   35POPC   GL1  411  33.836  34.856   6.930
   35POPC   GL2  412  33.564  34.666   6.796
   35POPC   C1A  413  34.127  34.856   6.619
   35POPC   D2A  414  34.542  35.083   6.428
   35POPC   C3A  415  34.573  35.309   6.023
   35POPC   C4A  416  34.791  35.230   5.623
   35POPC   C1B  417  33.730  34.607   6.450
   35POPC   C2B  418  33.777  34.579   6.004
   35POPC   C3B  419  34.116  34.597   5.593
   35POPC   C4B  420  34.316  34.709   5.128
   36POPC   NC3  421  19.039  14.732   7.367
   36POPC   PO4  422  19.134  14.375   7.262
   36POPC   GL1  423  18.889  14.407   6.989
   36POPC   GL2  424  18.989  14.145   6.933
   36POPC   C1A  425  18.852  14.583   6.592
   36POPC   D2A  426  18.876  14.402   6.184
   36POPC   C3A  427  18.851  14.570   5.766
   36POPC   C4A  428  18.910  15.063   5.524
   36POPC   C1B  429  19.084  14.080   6.610
   36POPC   C2B  430  19.199  14.040   6.246
   36POPC   C3B  431  19.280  14.099   5.767
   36POPC   C4B  432  19.748  14.252   5.679
   37POPC   NC3  433  30.383   5.917   7.440
   37POPC   PO4  434  30.498   5.996   7.082
   37POPC   GL1  435  30.597   6.233   6.752
   37POPC   GL2  436  30.634   5.908   6.654
   37POPC   C1A  437  30.516   6.442   6.363
   37POPC   D2A  438  30.526   6.600   5.915
   37POPC   C3A  439  30.509   7.067   5.744
   37POPC   C4A  440  30.645   7.544   5.573
   37POPC   C1B  441  30.820   5.903   6.325
   37POPC   C2B  442  30.729   6.130   5.963
   37POPC   C3B  443  30.661   6.339   5.563
   37POPC   C4B  444  30.969   6.666   5.319
   38POPC   NC3  445  23.084   0.574   7.469
   38POPC   PO4  446  23.012   0.206   7.349
   38POPC   GL1  447  22.898   0.180   6.977
   38POPC   GL2  448  22.730  -0.089   6.891
   38POPC   C1A  449  23.284   0.289   6.798
   38POPC   D2A  450  23.689   0.239   6.451
   38POPC   C3A  451  23.842   0.427   6.031
   38POPC   C4A  452  23.973   0.293   5.612
   38POPC   C1B  453  22.780  -0.026   6.527
   38POPC   C2B  454  22.722  -0.058   6.171
   38POPC   C3B  455  22.969  -0.191   5.742
   38POPC   C4B  456  22.930  -0.482   5.357
   39POPC   NC3  457   9.632  11.234   7.674
   39POPC   PO4  458   9.641  11.104   7.297
   39POPC   GL1  459   9.664  11.205   6.919
   39POPC   GL2  460   9.619  11.025   6.834
   39POPC   C1A  461  10.013  11.434   6.741
   39POPC   D2A  462  10.458  11.560   6.547
   39POPC   C3A  463  10.654  11.416   6.174
   39POPC   C4A  464  10.576  11.597   5.708
   39POPC   C1B  465   9.363  10.948   6.593
   39POPC   C2B  466   9.335  10.998   6.208
   39POPC   C3B  467   9.699  11.132   5.916
   39POPC   C4B  468   9.976  11.527   5.773
   40POPC   NC3  469   1.255  16.539   7.868
   40POPC   PO4  470   1.356  16.177   7.728
   40POPC   GL1  471   1.310  16.169   7.335
   40POPC   GL2  472   1.597  16.292   7.214
   40POPC   C1A  473   1.057  16.052   6.966
   40POPC   D2A  474   1.038  16.126   6.556
   40POPC   C3A  475   0.902  15.947   6.151
   40POPC   C4A  476   0.927  15.482   5.834
   40POPC   C1B  477   1.515  16.250   6.851
   40POPC   C2B  478   1.485  16.100   6.450
   40POPC   C3B  479   1.354  16.021   5.976
   40POPC   C4B  480   1.207  15.986   5.523
   41POPC   NC3  481   8.224  12.473   7.309
   41POPC   PO4  482   7.970  12.159   7.205
   41POPC   GL1  483   7.761  12.034   6.850
   41POPC   GL2  484   7.543  12.195   6.941
   41POPC   C1A  485   7.849  12.134   6.418
   41POPC   D2A  486   7.662  12.329   5.995
   41POPC   C3A  487   7.677  12.554   5.571
   41POPC   C4A  488   7.735  12.750   5.157
   41POPC   C1B  489   7.494  12.368   6.627
   41POPC   C2B  490   7.339  12.581   6.282
   41POPC   C3B  491   7.256  12.581   5.821
   41POPC   C4B  492   7.135  12.743   5.333
   42POPC   NC3  493  34.625   8.912   7.225
   42POPC   PO4  494  34.853   9.214   7.104
   42POPC   GL1  495  34.863   9.459   6.754
   42POPC   GL2  496  35.027   9.195   6.735
   42POPC   C1A  497  34.927   9.805   6.580
   42POPC   D2A  498  35.152   9.801   6.093
   42POPC   C3A  499  35.248   9.610   5.648
   42POPC   C4A  500  35.532   9.580   5.274
   42POPC   C1B  501  35.352   9.172   6.551
   42POPC   C2B  502  35.695   8.975   6.294
   42POPC   C3B  503  35.930   8.927   5.850
   42POPC   C4B  504  36.302   8.785   5.479
   43POPC   NC3  505  25.820  11.648   7.626
   43POPC   PO4  506  25.865  11.938   7.402
   43POPC   GL1  507  25.813  12.017   7.025
   43POPC   GL2  508  25.519  11.861   7.033
   43POPC   C1A  509  26.090  12.036   6.748
   43POPC   D2A  510  26.059  11.971   6.272
   43POPC   C3A  511  25.857  12.233   5.979
   43POPC   C4A  512  25.615  12.487   6.290
   43POPC   C1B  513  25.765  11.704   6.752
   43POPC   C2B  514  25.960  11.524   6.456
   43POPC   C3B  515  26.088  11.410   6.041
   43POPC   C4B  516  26.378  11.411   5.614
   44POPC   NC3  517  10.203   9.915   6.921
   44POPC   PO4  518   9.997  10.253   7.023
   44POPC   GL1  519   9.865  10.386   6.582
   44POPC   GL2  520   9.969  10.059   6.559
   44POPC   C1A  521   9.646  10.552   6.162
   44POPC   D2A  522   9.383  10.701   5.806
   44POPC   C3A  523   9.250  11.120   5.642
   44POPC   C4A  524   9.071  11.527   5.574
   44POPC   C1B  525  10.009  10.006   6.178
   44POPC   C2B  526   9.978  10.257   5.918
   44POPC   C3B  527   9.817  10.661   5.636
   44POPC   C4B  528   9.833  11.117   5.382
   45POPC   NC3  529  17.601  12.726   7.256
   45POPC   PO4  530  17.600  13.128   7.252
   45POPC   GL1  531  17.809  13.016   6.873
   45POPC   GL2  532  18.147  12.946   6.894
   45POPC   C1A  533  17.697  12.695   6.561
   45POPC   D2A  534  17.553  12.641   6.110
   45POPC   C3A  535  17.658  12.640   5.618
   45POPC   C4A  536  17.484  12.318   5.330
   45POPC   C1B  537  18.296  12.912   6.532
   45POPC   C2B  538  18.419  12.717   6.219
   45POPC   C3B  539  18.488  12.351   5.934
   45POPC   C4B  540  18.722  12.161   5.596
   46POPC   NC3  541   4.750  20.224   7.093
   46POPC   PO4  542   4.994  19.980   7.307
   46POPC   GL1  543   5.215  20.105   6.914
   46POPC   GL2  544   5.116  20.364   6.886
   46POPC   C1A  545   5.596  19.929   6.725
   46POPC   D2A  546   5.809  19.985   6.345
   46POPC   C3A  547   5.930  20.347   6.075
   46POPC   C4A  548   6.299  20.305   5.730
   46POPC   C1B  549   4.918  20.210   6.592
   46POPC   C2B  550   4.766  20.096   6.248
   46POPC   C3B  551   4.561  19.917   5.866
   46POPC   C4B  552   4.288  19.834   5.454
   47POPC   NC3  553   2.446  34.313   7.655
   47POPC   PO4  554   2.248  34.309   7.328
   47POPC   GL1  555   2.268  34.257   6.949
   47POPC   GL2  556   2.078  34.469   6.931
   47POPC   C1A  557   2.415  34.312   6.549
   47POPC   D2A  558   2.589  34.213   6.120
   47POPC   C3A  559   2.587  34.234   5.680
   47POPC   C4A  560   2.528  33.973   5.260
   47POPC   C1B  561   1.931  34.492   6.602
   47POPC   C2B  562   2.004  34.411   6.215
   47POPC   C3B  563   1.972  34.451   5.731
   47POPC   C4B  564   1.711  34.333   5.326
   48POPC   NC3  565  16.606  17.242   8.215
   48POPC   PO4  566  16.638  17.314   7.873
   48POPC   GL1  567  16.588  17.539   7.593
   48POPC   GL2  568  16.713  17.426   7.338
   48POPC   C1A  569  16.392  17.772   7.255
   48POPC   D2A  570  16.209  17.917   6.836
   48POPC   C3A  571  16.369  18.051   6.432
   48POPC   C4A  572  16.699  18.161   6.079
   48POPC   C1B  573  16.705  17.517   7.022
   48POPC   C2B  574  16.629  17.610   6.676
   48POPC   C3B  575  16.533  17.607   6.204
   48POPC   C4B  576  16.425  17.756   5.711
   49POPC   NC3  577  22.329  21.603   7.581
   49POPC   PO4  578  22.317  21.191   7.465
   49POPC   GL1  579  22.490  21.013   7.195
   49POPC   GL2  580  22.717  20.916   7.155
   49POPC   C1A  581  22.352  21.206   6.793
   49POPC   D2A  582  22.388  20.894   6.462
   49POPC   C3A  583  22.102  20.891   6.090
   49POPC   C4A  584  21.775  20.632   5.853
   49POPC   C1B  585  22.760  20.861   6.796
   49POPC   C2B  586  22.796  20.595   6.477
   49POPC   C3B  587  22.994  20.470   6.028
   49POPC   C4B  588  23.058  20.264   5.570
   50POPC   NC3  589  10.718  12.793   7.925
   50POPC   PO4  590  11.039  12.992   7.793
   50POPC   GL1  591  11.280  12.942   7.483
   50POPC   GL2  592  11.139  13.183   7.354
   50POPC   C1A  593  11.188  12.719   7.076
   50POPC   D2A  594  11.167  12.565   6.579
   50POPC   C3A  595  11.228  12.598   6.169
   50POPC   C4A  596  11.461  12.551   5.736
   50POPC   C1B  597  11.226  13.187   6.975
   50POPC   C2B  598  11.227  13.177   6.537
   50POPC   C3B  599  11.337  13.093   6.053
   50POPC   C4B  600  11.588  12.996   5.560
   51POPC   NC3  601  15.464   1.388   7.484
   51POPC   PO4  602  15.179   1.190   7.669
   51POPC   GL1  603  14.943   1.261   7.236
   51POPC   GL2  604  14.999   0.965   7.178
   51POPC   C1A  605  14.729   1.412   6.862
   51POPC   D2A  606  14.765   1.526   6.343
   51POPC   C3A  607  14.804   1.241   5.959
   51POPC   C4A  608  14.494   1.280   5.558
   51POPC   C1B  609  14.709   0.771   6.986
   51POPC   C2B  610  14.651   0.614   6.583
   51POPC   C3B  611  14.690   0.708   6.113
   51POPC   C4B  612  14.556   0.601   5.635
   52POPC   NC3  613   8.865   6.115   7.196
   52POPC   PO4  614   8.705   6.458   7.268
   52POPC   GL1  615   8.513   6.643   6.997
   52POPC   GL2  616   8.229   6.602   7.070
   52POPC   C1A  617   8.442   6.843   6.568
   52POPC   D2A  618   8.368   6.718   6.079
   52POPC   C3A  619   8.304   6.361   5.734
   52POPC   C4A  620   8.494   6.468   5.290
   52POPC   C1B  621   8.085   6.618   6.740
   52POPC   C2B  622   7.984   6.618   6.367
   52POPC   C3B  623   7.867   6.466   5.965
   52POPC   C4B  624   7.788   5.984   5.817
   53POPC   NC3  625  19.522  31.911   7.291
   53POPC   PO4  626  19.224  32.176   7.266
   53POPC   GL1  627  19.129  32.205   6.834
   53POPC   GL2  628  19.428  32.195   6.785
   53POPC   C1A  629  18.961  31.976   6.474
   53POPC   D2A  630  19.019  31.761   6.039
   53POPC   C3A  631  19.367  31.516   5.767
   53POPC   C4A  632  19.415  31.339   5.337
   53POPC   C1B  633  19.533  31.982   6.518
   53POPC   C2B  634  19.645  31.714   6.216
   53POPC   C3B  635  19.888  31.489   5.853
   53POPC   C4B  636  20.044  31.010   5.908
   54POPC   NC3  637   8.206  11.321   7.543
   54POPC   PO4  638   8.266  11.174   7.196
   54POPC   GL1  639   8.347  11.357   6.778
   54POPC   GL2  640   8.588  11.233   6.872
   54POPC   C1A  641   8.320  11.424   6.306
   54POPC   D2A  642   8.267  11.322   5.850
   54POPC   C3A  643   8.086  11.639   5.618
   54POPC   C4A  644   8.299  11.872   5.252
   54POPC   C1B  645   8.855  11.262   6.623
   54POPC   C2B  646   9.003  11.340   6.232
   54POPC   C3B  647   9.376  11.486   5.955
   54POPC   C4B  648   9.567  11.570   5.496
   55POPC   NC3  649  12.168  20.503   7.000
   55POPC   PO4  650  11.944  20.204   7.172
   55POPC   GL1  651  11.602  20.210   6.890
   55POPC   GL2  652  11.818  20.412   6.706
   55POPC   C1A  653  11.412  20.121   6.504
   55POPC   D2A  654  11.333  20.054   6.035
   55POPC   C3A  655  11.640  20.354   5.966
   55POPC   C4A  656  11.997  20.500   5.603
   55POPC   C1B  657  11.996  20.381   6.399
   55POPC   C2B  658  12.115  20.263   6.013
   55POPC   C3B  659  12.254  19.963   5.661
   55POPC   C4B  660  12.170  19.680   5.216
   56POPC   NC3  661   4.643   8.132   7.512
   56POPC   PO4  662   4.737   8.522   7.553
   56POPC   GL1  663   4.587   8.798   7.384
   56POPC   GL2  664   4.824   8.921   7.238
   56POPC   C1A  665   4.357   8.765   7.018
   56POPC   D2A  666   4.118   9.096   6.735
   56POPC   C3A  667   3.956   9.521   6.569
   56POPC   C4A  668   3.704   9.737   6.264
   56POPC   C1B  669   4.963   9.059   6.898
   56POPC   C2B  670   5.018   8.984   6.506
   56POPC   C3B  671   4.820   8.849   6.014
   56POPC   C4B  672   4.457   9.111   5.791
   57POPC   NC3  673  17.342  30.631   7.649
   57POPC   PO4  674  17.417  30.371   7.368
   57POPC   GL1  675  17.692  30.301   7.045
   57POPC   GL2  676  17.444  30.393   6.880
   57POPC   C1A  677  18.004  30.203   6.721
   57POPC   D2A  678  18.109  30.057   6.225
   57POPC   C3A  679  18.214  30.029   5.819
   57POPC   C4A  680  18.042  29.950   5.388
   57POPC   C1B  681  17.233  30.660   6.701
   57POPC   C2B  682  17.304  30.819   6.357
   57POPC   C3B  683  17.231  30.568   5.997
   57POPC   C4B  684  17.022  30.578   5.559
   58POPC   NC3  685  28.567   1.915   7.675
   58POPC   PO4  686  28.293   2.076   7.387
   58POPC   GL1  687  28.253   2.299   6.926
   58POPC   GL2  688  27.931   2.259   7.002
   58POPC   C1A  689  28.075   2.204   6.521
   58POPC   D2A  690  28.249   2.151   6.024
   58POPC   C3A  691  27.981   2.249   5.614
   58POPC   C4A  692  27.619   2.620   5.440
   58POPC   C1B  693  27.710   2.062   6.769
   58POPC   C2B  694  27.616   2.251   6.410
   58POPC   C3B  695  27.484   2.321   5.906
   58POPC   C4B  696  27.217   2.177   5.499
   59POPC   NC3  697   2.049  22.370   8.089
   59POPC   PO4  698   1.896  22.626   7.863
   59POPC   GL1  699   1.631  22.658   7.414
   59POPC   GL2  700   1.479  22.903   7.530
   59POPC   C1A  701   1.520  22.599   6.962
   59POPC   D2A  702   1.652  22.435   6.540
   59POPC   C3A  703   1.950  22.380   6.187
   59POPC   C4A  704   2.251  22.106   5.840
   59POPC   C1B  705   1.647  23.096   7.267
   59POPC   C2B  706   1.617  23.164   6.870
   59POPC   C3B  707   1.580  23.220   6.367
   59POPC   C4B  708   1.516  23.645   6.051
   60POPC   NC3  709  28.092   6.747   7.991
   60POPC   PO4  710  27.847   6.753   7.685
   60POPC   GL1  711  27.880   6.688   7.301
   60POPC   GL2  712  27.810   7.007   7.343
   60POPC   C1A  713  28.181   6.633   7.089
   60POPC   D2A  714  28.218   6.559   6.534
   60POPC   C3A  715  28.132   6.411   6.124
   60POPC   C4A  716  27.955   6.246   5.728
   60POPC   C1B  717  27.880   6.987   6.990
   60POPC   C2B  718  27.922   7.057   6.604
   60POPC   C3B  719  27.993   6.923   6.155
   60POPC   C4B  720  28.039   6.751   5.639
   61POPC   NC3  721  12.422   5.652   7.110
   61POPC   PO4  722  12.103   5.912   7.115
   61POPC   GL1  723  12.047   6.240   6.896
   61POPC   GL2  724  12.348   6.317   6.925
   61POPC   C1A  725  11.975   6.077   6.512
   61POPC   D2A  726  12.219   5.988   6.046
   61POPC   C3A  727  12.220   5.563   5.899
   61POPC   C4A  728  12.083   5.368   5.536
   61POPC   C1B  729  12.478   6.327   6.602
   61POPC   C2B  730  12.562   6.406   6.181
   61POPC   C3B  731  12.627   6.341   5.760
   61POPC   C4B  732  12.554   5.944   5.492
   62POPC   NC3  733  15.311  20.002   7.564
   62POPC   PO4  734  14.942  20.116   7.667
   62POPC   GL1  735  14.777  20.149   7.281
   62POPC   GL2  736  15.002  19.990   7.205
   62POPC   C1A  737  14.450  20.107   7.023
   62POPC   D2A  738  13.987  20.349   6.911
   62POPC   C3A  739  14.134  20.495   6.517
   62POPC   C4A  740  14.177  20.536   6.086
   62POPC   C1B  741  15.000  19.993   6.850
   62POPC   C2B  742  15.079  20.015   6.491
   62POPC   C3B  743  15.166  20.161   6.055
   62POPC   C4B  744  15.451  20.404   5.684
   63POPC   NC3  745  27.860   0.973   7.679
   63POPC   PO4  746  28.005   1.122   7.344
   63POPC   GL1  747  28.015   0.920   6.999
   63POPC   GL2  748  28.301   0.876   6.980
   63POPC   C1A  749  28.015   1.203   6.649
   63POPC   D2A  750  27.987   1.412   6.215
   63POPC   C3A  751  28.092   1.381   5.753
   63POPC   C4A  752  28.291   1.330   5.261
   63POPC   C1B  753  28.340   0.808   6.610
   63POPC   C2B  754  28.292   0.891   6.216
   63POPC   C3B  755  28.377   0.864   5.688
   63POPC   C4B  756  28.199   0.702   5.306
   64POPC   NC3  757   8.425  16.669   7.465
   64POPC   PO4  758   8.247  17.040   7.430
   64POPC   GL1  759   8.213  17.237   7.052
   64POPC   GL2  760   7.939  17.089   6.937
   64POPC   C1A  761   8.337  17.467   6.793
   64POPC   D2A  762   8.389  17.452   6.333
   64POPC   C3A  763   8.203  17.168   6.025
   64POPC   C4A  764   8.361  16.818   5.792
   64POPC   C1B  765   7.892  17.353   6.653
   64POPC   C2B  766   7.847  17.537   6.274
   64POPC   C3B  767   7.878  17.420   5.781
   64POPC   C4B  768   8.011  17.094   5.463
   65POPC   NC3  769  30.679  27.866   7.393
   65POPC   PO4  770  31.043  27.885   7.256
   65POPC   GL1  771  31.150  27.951   6.932
   65POPC   GL2  772  31.373  27.847   6.878
   65POPC   C1A  773  31.085  28.253   6.630
   65POPC   D2A  774  31.198  28.652   6.300
   65POPC   C3A  775  31.255  28.631   5.893
   65POPC   C4A  776  30.914  28.646   5.575
   65POPC   C1B  777  31.330  27.840   6.545
   65POPC   C2B  778  31.295  28.084   6.186
   65POPC   C3B  779  31.204  28.192   5.756
   65POPC   C4B  780  31.437  27.858   5.539
   66POPC   NC3  781  25.028  19.446   7.773
   66POPC   PO4  782  25.035  19.036   7.771
   66POPC   GL1  783  24.694  18.942   7.516
   66POPC   GL2  784  24.884  18.740   7.306
   66POPC   C1A  785  24.481  19.343   7.428
   66POPC   D2A  786  24.205  19.298   7.031
   66POPC   C3A  787  23.898  19.552   6.737
   66POPC   C4A  788  23.876  19.676   6.251
   66POPC   C1B  789  24.774  18.981   7.010
   66POPC   C2B  790  24.607  19.081   6.601
   66POPC   C3B  791  24.368  19.087   6.234
   66POPC   C4B  792  24.250  19.186   5.751
   67POPC   NC3  793  15.800  19.944   7.567
   67POPC   PO4  794  15.652  20.306   7.393
   67POPC   GL1  795  15.678  20.580   7.079
   67POPC   GL2  796  15.760  20.370   6.927
   67POPC   C1A  797  15.408  20.848   7.064
   67POPC   D2A  798  15.222  21.228   6.780
   67POPC   C3A  799  15.384  21.371   6.355
   67POPC   C4A  800  15.126  21.653   6.080
   67POPC   C1B  801  15.688  20.435   6.555
   67POPC   C2B  802  15.594  20.289   6.223
   67POPC   C3B  803  15.508  19.790   6.265
   67POPC   C4B  804  15.313  19.527   6.664
   68POPC   NC3  805  26.698  25.148   7.149
   68POPC   PO4  806  26.391  25.442   7.092
   68POPC   GL1  807  25.936  25.237   6.981
   68POPC   GL2  808  25.992  25.478   6.823
   68POPC   C1A  809  25.836  24.914   6.709
   68POPC   D2A  810  25.768  24.809   6.144
   68POPC   C3A  811  25.625  24.348   6.106
   68POPC   C4A  812  25.500  24.075   5.730
   68POPC   C1B  813  25.930  25.419   6.461
   68POPC   C2B  814  25.999  25.233   6.059
   68POPC   C3B  815  25.969  24.920   5.647
   68POPC   C4B  816  26.409  24.642   5.471
   69POPC   NC3  817  10.563   9.637   7.504
   69POPC   PO4  818  10.689   9.787   7.169
   69POPC   GL1  819  10.620   9.650   6.678
   69POPC   GL2  820  10.649   9.991   6.656
   69POPC   C1A  821  10.423   9.610   6.254
   69POPC   D2A  822  10.223   9.746   5.782
   69POPC   C3A  823  10.406   9.451   5.475
   69POPC   C4A  824  10.730   9.074   5.450
   69POPC   C1B  825  10.728   9.989   6.285
   69POPC   C2B  826  10.747   9.855   5.873
   69POPC   C3B  827  11.009   9.549   5.632
   69POPC   C4B  828  11.222   9.130   5.509
   70POPC   NC3  829  22.902  24.463   7.279
   70POPC   PO4  830  23.165  24.735   7.325
   70POPC   GL1  831  23.289  25.014   7.030
   70POPC   GL2  832  23.505  24.770   6.956
   70POPC   C1A  833  22.995  25.135   6.749
   70POPC   D2A  834  22.959  25.188   6.282
   70POPC   C3A  835  22.757  25.402   5.884
   70POPC   C4A  836  22.497  25.455   5.450
   70POPC   C1B  837  23.549  24.865   6.605
   70POPC   C2B  838  23.429  25.002   6.225
   70POPC   C3B  839  23.130  25.016   5.828
   70POPC   C4B  840  22.781  25.029   5.499
   71POPC   NC3  841  27.910   2.350   7.494
   71POPC   PO4  842  27.552   2.367   7.633
   71POPC   GL1  843  27.504   2.628   7.300
   71POPC   GL2  844  27.408   2.399   7.126
   71POPC   C1A  845  27.515   2.983   7.066
   71POPC   D2A  846  27.435   3.369   6.812
   71POPC   C3A  847  27.249   3.217   6.468
   71POPC   C4A  848  27.104   3.328   5.965
   71POPC   C1B  849  27.306   2.497   6.810
   71POPC   C2B  850  27.428   2.762   6.523
   71POPC   C3B  851  27.399   2.891   6.095
   71POPC   C4B  852  27.196   2.671   5.675
   72POPC   NC3  853  31.221  23.927   7.983
   72POPC   PO4  854  31.021  23.997   7.636
   72POPC   GL1  855  31.047  23.898   7.217
   72POPC   GL2  856  31.197  23.626   7.361
   72POPC   C1A  857  31.235  23.734   6.896
   72POPC   D2A  858  31.322  23.757   6.419
   72POPC   C3A  859  31.211  23.717   5.959
   72POPC   C4A  860  31.262  23.743   5.449
   72POPC   C1B  861  30.963  23.347   7.193
   72POPC   C2B  862  30.815  23.239   6.818
   72POPC   C3B  863  30.534  23.078   6.372
   72POPC   C4B  864  30.149  23.095   6.039
   73POPC   NC3  865   0.201   7.209   7.364
   73POPC   PO4  866  -0.151   7.056   7.297
   73POPC   GL1  867  -0.502   7.035   7.086
   73POPC   GL2  868  -0.700   7.089   7.188
   73POPC   C1A  869  -0.496   7.083   6.623
   73POPC   D2A  870  -0.146   7.259   6.299
   73POPC   C3A  871  -0.083   7.314   5.796
   73POPC   C4A  872  -0.195   7.361   5.279
   73POPC   C1B  873  -0.795   7.363   6.962
   73POPC   C2B  874  -0.825   7.444   6.571
   73POPC   C3B  875  -0.604   7.451   6.110
   73POPC   C4B  876  -0.377   7.710   5.698
   74POPC   NC3  877  23.011  35.596   7.240
   74POPC   PO4  878  22.676  35.794   7.356
   74POPC   GL1  879  22.376  35.772   7.128
   74POPC   GL2  880  22.239  35.989   7.256
   74POPC   C1A  881  22.334  35.799   6.680
   74POPC   D2A  882  22.323  35.632   6.215
   74POPC   C3A  883  22.443  35.765   5.799
   74POPC   C4A  884  22.505  35.822   5.293
   74POPC   C1B  885  21.996  35.978   6.946
   74POPC   C2B  886  21.925  35.995   6.539
   74POPC   C3B  887  21.967  36.009   6.055
   74POPC   C4B  888  21.938  36.117   5.584
   75POPC   NC3  889  34.713   2.177   7.314
   75POPC   PO4  890  34.830   2.501   7.107
   75POPC   GL1  891  34.885   2.412   6.756
   75POPC   GL2  892  35.114   2.305   6.646
   75POPC   C1A  893  34.781   2.603   6.378
   75POPC   D2A  894  34.910   2.714   5.908
   75POPC   C3A  895  34.645   3.077   5.773
   75POPC   C4A  896  34.619   3.537   5.628
   75POPC   C1B  897  35.179   2.236   6.259
   75POPC   C2B  898  35.204   2.354   5.851
   75POPC   C3B  899  35.443   2.370   5.402
   75POPC   C4B  900  35.643   2.194   4.997
   76POPC   NC3  901   8.602  19.026   7.395
   76POPC   PO4  902   8.418  19.331   7.580
   76POPC   GL1  903   8.405  19.810   7.502
   76POPC   GL2  904   8.657  19.766   7.344
   76POPC   C1A  905   8.101  19.826   7.186
   76POPC   D2A  906   7.806  19.838   6.777
   76POPC   C3A  907   7.818  19.891   6.269
   76POPC   C4A  908   7.823  19.807   5.792
   76POPC   C1B  909   8.843  19.910   7.059
   76POPC   C2B  910   8.902  20.201   6.818
   76POPC   C3B  911   8.783  20.283   6.349
   76POPC   C4B  912   8.815  20.202   5.858
   77POPC   NC3  913  18.694  19.566   8.271
   77POPC   PO4  914  18.561  19.232   8.082
   77POPC   GL1  915  18.564  19.299   7.664
   77POPC   GL2  916  18.904  19.182   7.628
   77POPC   C1A  917  18.387  19.346   7.294
   77POPC   D2A  918  18.261  19.303   6.815
   77POPC   C3A  919  18.093  19.123   6.427
   77POPC   C4A  920  17.855  19.167   5.993
   77POPC   C1B  921  18.921  19.198   7.279
   77POPC   C2B  922  18.735  19.267   6.886
   77POPC   C3B  923  18.630  19.388   6.471
   77POPC   C4B  924  18.217  19.594   6.169
   78POPC   NC3  925  33.426   5.885   7.298
   78POPC   PO4  926  33.818   5.971   7.411
   78POPC   GL1  927  34.150   5.878   7.133
   78POPC   GL2  928  34.327   6.012   7.369
   78POPC   C1A  929  34.269   5.475   7.010
   78POPC   D2A  930  34.095   5.268   6.598
   78POPC   C3A  931  33.956   5.252   6.156
   78POPC   C4A  932  34.014   5.353   5.682
   78POPC   C1B  933  34.573   6.027   7.111
   78POPC   C2B  934  34.417   5.982   6.734
   78POPC   C3B  935  34.384   6.253   6.301
   78POPC   C4B  936  34.566   6.057   5.846
   79POPC   NC3  937  25.152  14.581   8.036
   79POPC   PO4  938  25.380  14.924   7.953
   79POPC   GL1  939  25.351  14.935   7.513
   79POPC   GL2  940  25.092  14.769   7.586
   79POPC   C1A  941  25.310  15.105   7.091
   79POPC   D2A  942  25.206  15.217   6.690
   79POPC   C3A  943  25.007  15.466   6.428
   79POPC   C4A  944  24.894  15.557   5.965
   79POPC   C1B  945  24.923  14.756   7.305
   79POPC   C2B  946  25.008  14.748   6.897
   79POPC   C3B  947  25.141  14.703   6.493
   79POPC   C4B  948  25.332  14.579   6.008
   80POPC   NC3  949   1.483  26.049   7.453
   80POPC   PO4  950   1.082  26.052   7.563
   80POPC   GL1  951   0.899  25.893   7.225
   80POPC   GL2  952   0.900  25.644   7.231
   80POPC   C1A  953   1.112  26.079   6.973
   80POPC   D2A  954   1.399  26.112   6.623
   80POPC   C3A  955   1.543  26.097   6.175
   80POPC   C4A  956   1.593  25.915   5.675
   80POPC   C1B  957   0.882  25.661   6.896
   80POPC   C2B  958   0.848  25.584   6.544
   80POPC   C3B  959   0.957  25.407   6.109
   80POPC   C4B  960   1.025  25.121   5.700
   81POPC   NC3  961  11.354  18.657   7.091
   81POPC   PO4  962  11.072  18.931   7.192
   81POPC   GL1  963  10.849  19.041   6.875
   81POPC   GL2  964  10.704  19.262   6.980
   81POPC   C1A  965  10.816  18.912   6.476
   81POPC   D2A  966  10.857  18.865   5.960
   81POPC   C3A  967  11.130  18.435   5.906
   81POPC   C4A  968  11.094  18.193   5.417
   81POPC   C1B  969  10.642  19.305   6.606
   81POPC   C2B  970  10.600  19.318   6.173
   81POPC   C3B  971  10.520  19.213   5.763
   81POPC   C4B  972  10.736  18.949   5.453
   82POPC   NC3  973  14.185  22.571   7.575
   82POPC   PO4  974  14.409  22.368   7.824
   82POPC   GL1  975  14.703  22.373   7.518
   82POPC   GL2  976  14.540  22.334   7.303
   82POPC   C1A  977  14.969  22.158   7.258
   82POPC   D2A  978  15.141  22.085   6.831
   82POPC   C3A  979  15.272  22.132   6.336
   82POPC   C4A  980  15.214  22.094   5.845
   82POPC   C1B  981  14.642  22.307   6.976
   82POPC   C2B  982  14.704  22.172   6.614
   82POPC   C3B  983  14.738  21.919   6.193
   82POPC   C4B  984  14.680  21.785   5.713
   83POPC   NC3  985  13.607  35.225   7.089
   83POPC   PO4  986  13.234  35.440   7.157
   83POPC   GL1  987  13.038  35.327   6.762
   83POPC   GL2  988  13.264  35.222   6.670
   83POPC   C1A  989  12.941  35.564   6.454
   83POPC   D2A  990  12.670  35.793   6.114
   83POPC   C3A  991  12.697  35.819   5.623
   83POPC   C4A  992  13.036  36.005   5.284
   83POPC   C1B  993  13.129  35.014   6.404
   83POPC   C2B  994  13.258  34.905   6.090
   83POPC   C3B  995  13.298  34.873   5.587
   83POPC   C4B  996  13.066  34.814   5.126
   84POPC   NC3  997  29.168  20.398   7.385
   84POPC   PO4  998  28.849  20.204   7.216
   84POPC   GL1  999  28.741  20.142   6.817
   84POPC   GL2 1000  28.586  20.337   6.756
   84POPC   C1A 1001  28.802  19.851   6.490
   84POPC   D2A 1002  28.932  19.620   6.074
   84POPC   C3A 1003  28.935  19.571   5.569
   84POPC   C4A 1004  29.141  19.562   5.178
   84POPC   C1B 1005  28.467  20.291   6.416
   84POPC   C2B 1006  28.324  20.356   6.038
   84POPC   C3B 1007  28.406  20.383   5.582
   84POPC   C4B 1008  28.360  20.442   5.048
   85POPC   NC3 1009   4.936  17.443   7.190
   85POPC   PO4 1010   4.830  17.089   7.325
   85POPC   GL1 1011   4.596  16.866   7.112
   85POPC   GL2 1012   4.580  16.635   7.260
   85POPC   C1A 1013   4.663  16.777   6.728
   85POPC   D2A 1014   4.787  16.820   6.237
   85POPC   C3A 1015   4.938  16.640   5.864
   85POPC   C4A 1016   5.183  16.336   5.586
   85POPC   C1B 1017   4.622  16.413   7.037
   85POPC   C2B 1018   4.731  16.207   6.713
   85POPC   C3B 1019   4.989  16.340   6.333
   85POPC   C4B 1020   5.415  16.211   6.019
   86POPC   NC3 1021   2.695  10.678   7.476
   86POPC   PO4 1022   2.813  10.996   7.297
   86POPC   GL1 1023   2.698  11.220   6.946
   86POPC   GL2 1024   2.831  11.444   6.965
   86POPC   C1A 1025   2.245  11.309   7.017
   86POPC   D2A 1026   1.833  11.352   6.723
   86POPC   C3A 1027   1.903  11.268   6.262
   86POPC   C4A 1028   2.283  11.118   6.006
   86POPC   C1B 1029   2.861  11.482   6.618
   86POPC   C2B 1030   2.899  11.528   6.219
   86POPC   C3B 1031   3.003  11.675   5.695
   86POPC   C4B 1032   3.463  11.743   5.410
   87POPC   NC3 1033  16.835  35.764   7.166
   87POPC   PO4 1034  16.656  35.444   7.162
   87POPC   GL1 1035  16.480  35.377   6.773
   87POPC   GL2 1036  16.340  35.123   6.910
   87POPC   C1A 1037  16.460  35.297   6.307
   87POPC   D2A 1038  16.545  35.252   5.846
   87POPC   C3A 1039  16.806  35.226   5.504
   87POPC   C4A 1040  17.067  35.556   5.232
   87POPC   C1B 1041  16.219  34.944   6.616
   87POPC   C2B 1042  16.098  34.961   6.183
   87POPC   C3B 1043  15.991  34.872   5.727
   87POPC   C4B 1044  15.810  35.019   5.345
   88POPC   NC3 1045  35.958   1.244   7.542
   88POPC   PO4 1046  36.270   1.214   7.315
   88POPC   GL1 1047  36.217   1.184   6.876
   88POPC   GL2 1048  36.274   1.431   6.892
   88POPC   C1A 1049  35.950   1.283   6.499
   88POPC   D2A 1050  36.022   1.134   5.986
   88POPC   C3A 1051  36.427   1.240   5.785
   88POPC   C4A 1052  36.710   1.267   5.388
   88POPC   C1B 1053  36.344   1.482   6.541
   88POPC   C2B 1054  36.472   1.515   6.154
   88POPC   C3B 1055  36.705   1.666   5.769
   88POPC   C4B 1056  37.074   1.745   5.410
   89POPC   NC3 1057  33.095  27.722   7.852
   89POPC   PO4 1058  33.389  27.970   7.720
   89POPC   GL1 1059  33.517  28.188   7.446
   89POPC   GL2 1060  33.297  28.228   7.269
   89POPC   C1A 1061  33.714  28.015   7.057
   89POPC   D2A 1062  34.066  27.777   6.738
   89POPC   C3A 1063  34.014  27.956   6.306
   89POPC   C4A 1064  33.839  27.655   5.932
   89POPC   C1B 1065  33.355  28.238   6.907
   89POPC   C2B 1066  33.366  28.404   6.521
   89POPC   C3B 1067  33.331  28.390   5.997
   89POPC   C4B 1068  33.269  28.571   5.579
   90POPC   NC3 1069  18.350  27.973   7.270
   90POPC   PO4 1070  18.103  27.677   7.236
   90POPC   GL1 1071  17.852  27.884   6.964
   90POPC   GL2 1072  17.674  27.771   7.115
   90POPC   C1A 1073  17.877  27.997   6.549
   90POPC   D2A 1074  17.928  28.061   6.018
   90POPC   C3A 1075  18.278  28.292   6.160
   90POPC   C4A 1076  18.643  28.527   6.449
   90POPC   C1B 1077  17.445  27.704   6.784
   90POPC   C2B 1078  17.369  27.757   6.375
   90POPC   C3B 1079  17.413  27.864   5.948
   90POPC   C4B 1080  17.668  28.102   5.630
   91POPC   NC3 1081  29.207  21.364   7.279
   91POPC   PO4 1082  28.934  21.628   7.324
   91POPC   GL1 1083  28.751  21.783   6.990
   91POPC   GL2 1084  28.913  21.934   6.881
   91POPC   C1A 1085  28.569  21.590   6.642
   91POPC   D2A 1086  28.519  21.258   6.297
   91POPC   C3A 1087  28.562  21.350   5.799
   91POPC   C4A 1088  28.442  21.445   5.407
   91POPC   C1B 1089  28.910  22.062   6.515
   91POPC   C2B 1090  28.809  22.198   6.111
   91POPC   C3B 1091  28.658  22.239   5.607
   91POPC   C4B 1092  28.240  22.496   5.694
   92POPC   NC3 1093  31.601  33.612   7.563
   92POPC   PO4 1094  31.699  33.910   7.292
   92POPC   GL1 1095  31.515  34.234   6.995
   92POPC   GL2 1096  31.648  34.061   6.824
   92POPC   C1A 1097  31.310  34.458   6.698
   92POPC   D2A 1098  30.922  34.636   6.397
   92POPC   C3A 1099  31.264  34.536   6.164
   92POPC   C4A 1100  31.433  34.708   5.761
   92POPC   C1B 1101  31.518  34.097   6.468
   92POPC   C2B 1102  31.411  34.048   6.083
   92POPC   C3B 1103  31.313  34.163   5.649
   92POPC   C4B 1104  30.975  34.540   5.556
   93POPC   NC3 1105   4.263  30.841   8.166
   93POPC   PO4 1106   4.154  31.100   7.903
   93POPC   GL1 1107   4.269  31.225   7.482
   93POPC   GL2 1108   4.038  31.423   7.502
   93POPC   C1A 1109   4.219  31.229   7.072
   93POPC   D2A 1110   3.951  31.099   6.671
   93POPC   C3A 1111   3.958  31.224   6.263
   93POPC   C4A 1112   3.938  31.329   5.779
   93POPC   C1B 1113   3.834  31.477   7.255
   93POPC   C2B 1114   3.651  31.779   7.068
   93POPC   C3B 1115   3.643  31.727   6.571
   93POPC   C4B 1116   3.535  31.609   6.152
   94POPC   NC3 1117  32.408  33.477   7.234
   94POPC   PO4 1118  32.097  33.632   7.365
   94POPC   GL1 1119  32.236  33.866   7.065
   94POPC   GL2 1120  31.996  33.854   6.893
   94POPC   C1A 1121  32.487  33.646   6.781
   94POPC   D2A 1122  32.639  33.646   6.375
   94POPC   C3A 1123  32.651  33.634   5.851
   94POPC   C4A 1124  32.431  33.408   5.470
   94POPC   C1B 1125  32.063  33.911   6.577
   94POPC   C2B 1126  32.005  34.055   6.190
   94POPC   C3B 1127  31.837  34.101   5.721
   94POPC   C4B 1128  31.670  34.447   5.434
   95POPC   NC3 1129  24.883  28.478   7.153
   95POPC   PO4 1130  25.120  28.824   7.233
   95POPC   GL1 1131  25.244  28.854   6.863
   95POPC   GL2 1132  24.977  28.833   6.758
   95POPC   C1A 1133  25.474  29.095   6.548
   95POPC   D2A 1134  25.399  28.996   6.111
   95POPC   C3A 1135  25.437  29.073   5.644
   95POPC   C4A 1136  25.444  28.960   5.149
   95POPC   C1B 1137  24.925  28.815   6.407
   95POPC   C2B 1138  24.926  28.887   5.995
   95POPC   C3B 1139  25.046  28.857   5.510
   95POPC   C4B 1140  24.942  28.871   5.029
   96POPC   NC3 1141  20.186  21.218   7.702
   96POPC   PO4 1142  20.290  20.873   7.551
   96POPC   GL1 1143  20.350  20.921   7.153
   96POPC   GL2 1144  20.068  20.798   7.025
   96POPC   C1A 1145  20.604  20.830   6.765
   96POPC   D2A 1146  20.677  21.064   6.333
   96POPC   C3A 1147  20.556  20.939   5.898
   96POPC   C4A 1148  20.319  20.861   5.533
   96POPC   C1B 1149  20.111  20.818   6.659
   96POPC   C2B 1150  20.362  20.661   6.306
   96POPC   C3B 1151  20.350  20.430   5.879
   96POPC   C4B 1152  20.678  20.200   5.618
   97POPC   NC3 1153  13.563  16.755   8.237
   97POPC   PO4 1154  13.403  17.058   7.984
   97POPC   GL1 1155  13.429  17.034   7.617
   97POPC   GL2 1156  13.737  17.120   7.504
   97POPC   C1A 1157  13.399  16.887   7.242
   97POPC   D2A 1158  13.542  16.945   6.759
   97POPC   C3A 1159  13.719  16.803   6.379
   97POPC   C4A 1160  13.476  16.670   6.052
   97POPC   C1B 1161  13.862  17.022   7.192
   97POPC   C2B 1162  14.056  16.914   6.822
   97POPC   C3B 1163  14.045  16.431   6.738
   97POPC   C4B 1164  13.787  15.964   6.886
   98POPC   NC3 1165   5.964  28.909   7.777
   98POPC   PO4 1166   6.202  28.673   7.521
   98POPC   GL1 1167   6.062  28.578   7.158
   98POPC   GL2 1168   5.935  28.284   7.220
   98POPC   C1A 1169   5.932  28.748   6.795
   98POPC   D2A 1170   5.825  28.757   6.260
   98POPC   C3A 1171   5.896  28.807   5.809
   98POPC   C4A 1172   6.116  28.773   5.339
   98POPC   C1B 1173   5.886  28.262   6.885
   98POPC   C2B 1174   5.954  28.312   6.453
   98POPC   C3B 1175   5.966  28.359   5.953
   98POPC   C4B 1176   5.939  28.188   5.366
   99POPC   NC3 1177  30.017  21.554   7.490
   99POPC   PO4 1178  29.779  21.413   7.164
   99POPC   GL1 1179  29.886  21.432   6.752
   99POPC   GL2 1180  29.642  21.629   6.673
   99POPC   C1A 1181  30.000  21.277   6.424
   99POPC   D2A 1182  29.945  21.227   5.942
   99POPC   C3A 1183  29.917  20.949   5.550
   99POPC   C4A 1184  30.018  20.761   5.086
   99POPC   C1B 1185  29.758  21.751   6.338
   99POPC   C2B 1186  29.717  21.668   5.954
   99POPC   C3B 1187  29.655  21.555   5.479
   99POPC   C4B 1188  29.965  21.266   5.196
  100POPC   NC3 1189  33.886  21.457   7.618
  100POPC   PO4 1190  34.154  21.122   7.645
  100POPC   GL1 1191  34.037  21.115   7.227
  100POPC   GL2 1192  34.276  21.003   7.147
  100POPC   C1A 1193  33.972  21.245   6.802
  100POPC   D2A 1194  33.997  21.325   6.311
  100POPC   C3A 1195  33.805  21.185   5.936
  100POPC   C4A 1196  33.777  20.692   5.861
  100POPC   C1B 1197  34.420  21.101   6.775
  100POPC   C2B 1198  34.473  21.144   6.364
  100POPC   C3B 1199  34.495  21.368   5.919
  100POPC   C4B 1200  34.642  21.550   5.482
  101POPC   NC3 1201   5.039   5.810   7.168
  101POPC   PO4 1202   5.141   6.207   7.152
  101POPC   GL1 1203   5.080   6.147   6.785
  101POPC   GL2 1204   5.397   6.334   6.831
  101POPC   C1A 1205   5.024   6.362   6.380
  101POPC   D2A 1206   5.167   6.829   6.266
  101POPC   C3A 1207   5.369   6.885   5.868
  101POPC   C4A 1208   5.179   7.051   5.458
  101POPC   C1B 1209   5.477   6.421   6.500
  101POPC   C2B 1210   5.579   6.495   6.131
  101POPC   C3B 1211   5.780   6.662   5.694
  101POPC   C4B 1212   6.011   6.685   5.365
  102POPC   NC3 1213  21.153   9.946   7.989
  102POPC   PO4 1214  21.047   9.887   7.605
  102POPC   GL1 1215  21.360   9.859   7.368
  102POPC   GL2 1216  21.353   9.562   7.247
  102POPC   C1A 1217  21.594  10.116   7.062
  102POPC   D2A 1218  21.518  10.390   6.656
  102POPC   C3A 1219  21.408  10.397   6.207
  102POPC   C4A 1220  21.029  10.235   5.910
  102POPC   C1B 1221  21.381   9.664   6.905
  102POPC   C2B 1222  21.293   9.900   6.569
  102POPC   C3B 1223  21.165   9.789   6.121
  102POPC   C4B 1224  21.096   9.695   5.714
  103POPC   NC3 1225  14.879  24.083   7.824
  103POPC   PO4 1226  14.665  23.907   7.577
  103POPC   GL1 1227  14.629  24.163   7.205
  103POPC   GL2 1228  14.399  24.290   7.291
  103POPC   C1A 1229  14.640  24.053   6.798
  103POPC   D2A 1230  14.723  23.698   6.376
  103POPC   C3A 1231  14.809  23.600   5.932
  103POPC   C4A 1232  14.818  23.300   5.602
  103POPC   C1B 1233  14.222  24.196   6.971
  103POPC   C2B 1234  14.059  24.112   6.586
  103POPC   C3B 1235  13.994  24.044   6.150
  103POPC   C4B 1236  13.769  23.883   5.721
  104POPC   NC3 1237   8.313  25.195   7.334
  104POPC   PO4 1238   8.513  25.073   7.024
  104POPC   GL1 1239   8.527  24.941   6.636
  104POPC   GL2 1240   8.679  25.193   6.679
  104POPC   C1A 1241   8.320  24.809   6.261
  104POPC   D2A 1242   8.458  24.747   5.773
  104POPC   C3A 1243   8.259  24.631   5.356
  104POPC   C4A 1244   7.859  24.436   5.127
  104POPC   C1B 1245   8.478  25.369   6.445
  104POPC   C2B 1246   8.432  25.310   6.039
  104POPC   C3B 1247   8.268  25.393   5.603
  104POPC   C4B 1248   8.326  25.473   5.138
  105POPC   NC3 1249  21.077   6.552   7.374
  105POPC   PO4 1250  20.774   6.668   7.256
  105POPC   GL1 1251  20.640   6.498   6.937
  105POPC   GL2 1252  20.685   6.238   6.983
  105POPC   C1A 1253  20.482   6.609   6.513
  105POPC   D2A 1254  20.660   6.843   6.121
  105POPC   C3A 1255  20.773   6.910   5.700
  105POPC   C4A 1256  21.120   6.813   5.309
  105POPC   C1B 1257  20.938   6.070   6.731
  105POPC   C2B 1258  21.004   5.895   6.366
  105POPC   C3B 1259  20.823   6.015   5.897
  105POPC   C4B 1260  20.838   6.370   5.528
  106POPC   NC3 1261   8.988  25.978   6.745
  106POPC   PO4 1262   8.759  26.261   6.937
  106POPC   GL1 1263   8.539  26.521   6.726
  106POPC   GL2 1264   8.741  26.700   6.734
  106POPC   C1A 1265   8.310  26.692   6.436
  106POPC   D2A 1266   8.036  26.754   5.981
  106POPC   C3A 1267   8.381  26.758   5.637
  106POPC   C4A 1268   8.632  26.959   5.239
  106POPC   C1B 1269   8.798  26.980   6.517
  106POPC   C2B 1270   9.072  27.051   6.148
  106POPC   C3B 1271   8.821  27.290   5.796
  106POPC   C4B 1272   8.641  27.575   5.447
  107POPC   NC3 1273  17.669  27.273   7.314
  107POPC   PO4 1274  18.021  27.104   7.312
  107POPC   GL1 1275  18.131  27.267   6.888
  107POPC   GL2 1276  17.814  27.400   6.901
  107POPC   C1A 1277  18.165  27.255   6.469
  107POPC   D2A 1278  18.262  27.244   5.961
  107POPC   C3A 1279  18.457  27.481   5.564
  107POPC   C4A 1280  18.450  27.416   5.014
  107POPC   C1B 1281  17.725  27.473   6.549
  107POPC   C2B 1282  17.892  27.583   6.166
  107POPC   C3B 1283  17.989  27.678   5.747
  107POPC   C4B 1284  18.280  28.050   5.631
  108POPC   NC3 1285   0.264   7.677   7.654
  108POPC   PO4 1286   0.626   7.640   7.694
  108POPC   GL1 1287   0.700   7.677   7.349
  108POPC   GL2 1288   0.487   7.619   7.216
  108POPC   C1A 1289   0.754   8.058   7.133
  108POPC   D2A 1290   1.065   8.054   6.769
  108POPC   C3A 1291   1.162   8.144   6.344
  108POPC   C4A 1292   1.203   8.057   5.857
  108POPC   C1B 1293   0.543   7.760   6.876
  108POPC   C2B 1294   0.557   7.908   6.477
  108POPC   C3B 1295   0.276   8.009   6.106
  108POPC   C4B 1296   0.385   8.154   5.601
  109POPC   NC3 1297  20.267  26.066   7.346
  109POPC   PO4 1298  20.196  25.712   7.537
  109POPC   GL1 1299  20.013  25.523   7.136
  109POPC   GL2 1300  19.761  25.662   7.146
  109POPC   C1A 1301  20.172  25.607   6.708
  109POPC   D2A 1302  20.575  25.462   6.430
  109POPC   C3A 1303  20.748  25.728   6.032
  109POPC   C4A 1304  20.843  25.795   5.518
  109POPC   C1B 1305  19.747  25.358   6.912
  109POPC   C2B 1306  19.717  24.963   6.872
  109POPC   C3B 1307  19.655  24.566   6.992
  109POPC   C4B 1308  19.510  24.073   6.852
  110POPC   NC3 1309  21.431   2.143   7.815
  110POPC   PO4 1310  21.520   2.171   7.386
  110POPC   GL1 1311  21.593   1.803   7.118
  110POPC   GL2 1312  21.284   1.865   7.014
  110POPC   C1A 1313  21.901   1.891   6.791
  110POPC   D2A 1314  21.959   1.655   6.366
  110POPC   C3A 1315  21.931   1.626   5.933
  110POPC   C4A 1316  22.093   1.484   5.524
  110POPC   C1B 1317  21.428   2.030   6.750
  110POPC   C2B 1318  21.480   1.970   6.387
  110POPC   C3B 1319  21.531   1.926   5.891
  110POPC   C4B 1320  21.749   1.891   5.493
  111POPC   NC3 1321  29.232   2.272   8.146
  111POPC   PO4 1322  29.083   2.084   7.790
  111POPC   GL1 1323  29.223   1.875   7.510
  111POPC   GL2 1324  29.550   1.851   7.519
  111POPC   C1A 1325  29.196   1.797   7.108
  111POPC   D2A 1326  28.874   1.950   6.802
  111POPC   C3A 1327  29.001   2.009   6.423
  111POPC   C4A 1328  29.197   1.951   5.998
  111POPC   C1B 1329  29.595   1.849   7.136
  111POPC   C2B 1330  29.575   1.883   6.766
  111POPC   C3B 1331  29.544   2.122   6.373
  111POPC   C4B 1332  29.654   2.357   5.963
  112POPC   NC3 1333  29.661  12.127   7.669
  112POPC   PO4 1334  29.295  12.011   7.475
  112POPC   GL1 1335  29.089  12.199   7.139
  112POPC   GL2 1336  28.989  11.915   7.117
  112POPC   C1A 1337  29.239  12.175   6.748
  112POPC   D2A 1338  29.514  12.067   6.365
  112POPC   C3A 1339  29.619  12.129   5.945
  112POPC   C4A 1340  29.310  12.302   5.585
  112POPC   C1B 1341  28.998  11.814   6.774
  112POPC   C2B 1342  29.021  11.835   6.360
  112POPC   C3B 1343  28.832  11.559   5.961
  112POPC   C4B 1344  28.736  11.411   5.560
  113POPC   NC3 1345   1.199   7.976   7.769
  113POPC   PO4 1346   1.542   7.853   7.660
  113POPC   GL1 1347   1.749   7.713   7.249
  113POPC   GL2 1348   1.897   7.927   7.216
  113POPC   C1A 1349   1.743   7.428   6.940
  113POPC   D2A 1350   2.003   7.392   6.549
  113POPC   C3A 1351   2.058   7.426   6.103
  113POPC   C4A 1352   1.827   7.246   5.732
  113POPC   C1B 1353   1.900   8.127   6.903
  113POPC   C2B 1354   2.089   8.142   6.544
  113POPC   C3B 1355   2.212   8.182   6.099
  113POPC   C4B 1356   2.178   7.792   5.746
  114POPC   NC3 1357   6.656   5.330   7.188
  114POPC   PO4 1358   7.073   5.332   7.200
  114POPC   GL1 1359   7.212   5.550   6.823
  114POPC   GL2 1360   7.446   5.258   6.829
  114POPC   C1A 1361   7.274   5.491   6.396
  114POPC   D2A 1362   7.228   5.417   5.895
  114POPC   C3A 1363   7.202   5.359   5.455
  114POPC   C4A 1364   7.038   5.216   5.033
  114POPC   C1B 1365   7.532   5.038   6.524
  114POPC   C2B 1366   7.634   5.106   6.114
  114POPC   C3B 1367   7.604   5.154   5.656
  114POPC   C4B 1368   7.747   5.076   5.172
  115POPC   NC3 1369  17.825  32.924   7.875
  115POPC   PO4 1370  17.498  32.987   7.683
  115POPC   GL1 1371  17.498  32.720   7.317
  115POPC   GL2 1372  17.493  33.053   7.177
  115POPC   C1A 1373  17.765  32.619   7.009
  115POPC   D2A 1374  17.975  32.596   6.565
  115POPC   C3A 1375  17.922  32.652   6.124
  115POPC   C4A 1376  17.844  32.629   5.657
  115POPC   C1B 1377  17.565  32.961   6.780
  115POPC   C2B 1378  17.477  32.792   6.385
  115POPC   C3B 1379  17.359  32.726   5.921
  115POPC   C4B 1380  17.244  32.839   5.497
  116POPC   NC3 1381  18.482  28.601   8.212
  116POPC   PO4 1382  18.565  28.551   7.825
  116POPC   GL1 1383  18.461  28.691   7.404
  116POPC   GL2 1384  18.274  28.436   7.429
  116POPC   C1A 1385  18.178  28.931   7.185
  116POPC   D2A 1386  17.722  28.997   7.078
  116POPC   C3A 1387  17.593  28.888   6.608
  116POPC   C4A 1388  17.486  28.855   6.138
  116POPC   C1B 1389  18.150  28.455   7.042
  116POPC   C2B 1390  18.325  28.205   6.745
  116POPC   C3B 1391  18.403  27.788   6.499
  116POPC   C4B 1392  18.409  27.750   6.021
  117POPC   NC3 1393  15.235  28.220   6.940
  117POPC   PO4 1394  15.109  28.538   7.195
  117POPC   GL1 1395  15.190  28.840   6.935
  117POPC   GL2 1396  14.970  28.722   6.756
  117POPC   C1A 1397  15.202  29.307   6.780
  117POPC   D2A 1398  15.164  29.387   6.356
  117POPC   C3A 1399  14.714  29.333   6.164
  117POPC   C4A 1400  14.339  29.021   6.021
  117POPC   C1B 1401  15.055  28.403   6.501
  117POPC   C2B 1402  15.037  28.366   6.140
  117POPC   C3B 1403  15.198  28.667   5.714
  117POPC   C4B 1404  15.274  28.824   5.218
  118POPC   NC3 1405   5.102  35.189   7.192
  118POPC   PO4 1406   5.122  34.794   7.381
  118POPC   GL1 1407   5.153  34.657   7.061
  118POPC   GL2 1408   4.898  34.866   6.927
  118POPC   C1A 1409   5.290  34.510   6.643
  118POPC   D2A 1410   5.037  34.403   6.258
  118POPC   C3A 1411   4.999  34.357   5.804
  118POPC   C4A 1412   4.798  34.126   5.433
  118POPC   C1B 1413   4.759  34.939   6.571
  118POPC   C2B 1414   4.595  35.054   6.193
  118POPC   C3B 1415   4.324  34.851   5.911
  118POPC   C4B 1416   4.145  34.996   5.484
  119POPC   NC3 1417  21.537   7.788   7.583
  119POPC   PO4 1418  21.271   7.553   7.431
  119POPC   GL1 1419  21.121   7.553   7.054
  119POPC   GL2 1420  21.167   7.308   7.004
  119POPC   C1A 1421  21.167   7.709   6.604
  119POPC   D2A 1422  21.250   7.821   6.127
  119POPC   C3A 1423  21.246   7.926   5.731
  119POPC   C4A 1424  21.390   8.361   5.904
  119POPC   C1B 1425  21.185   7.268   6.684
  119POPC   C2B 1426  21.166   7.314   6.275
  119POPC   C3B 1427  21.172   7.320   5.774
  119POPC   C4B 1428  20.914   7.418   5.317
  120POPC   NC3 1429  24.494   6.825   8.215
  120POPC   PO4 1430  24.253   6.618   8.027
  120POPC   GL1 1431  24.072   6.713   7.619
  120POPC   GL2 1432  24.048   6.427   7.535
  120POPC   C1A 1433  24.085   7.019   7.312
  120POPC   D2A 1434  24.182   7.370   7.018
  120POPC   C3A 1435  24.203   7.451   6.526
  120POPC   C4A 1436  24.187   7.434   6.021
  120POPC   C1B 1437  23.998   6.451   7.192
  120POPC   C2B 1438  24.129   6.557   6.789
  120POPC   C3B 1439  24.291   6.708   6.328
  120POPC   C4B 1440  24.264   6.763   5.866
  121POPC   NC3 1441  30.397   7.002   6.988
  121POPC   PO4 1442  30.418   7.337   7.037
  121POPC   GL1 1443  30.194   7.689   6.728
  121POPC   GL2 1444  30.474   7.758   6.681
  121POPC   C1A 1445  30.131   7.855   6.351
  121POPC   D2A 1446  29.935   8.164   6.012
  121POPC   C3A 1447  29.691   8.261   5.627
  121POPC   C4A 1448  29.932   8.474   5.221
  121POPC   C1B 1449  30.599   7.853   6.375
  121POPC   C2B 1450  30.501   8.001   5.951
  121POPC   C3B 1451  30.368   8.227   5.521
  121POPC   C4B 1452  30.416   8.547   5.131
  122POPC   NC3 1453  32.889  29.300   7.756
  122POPC   PO4 1454  33.188  29.045   7.851
  122POPC   GL1 1455  33.177  29.033   7.473
  122POPC   GL2 1456  32.878  28.997   7.394
  122POPC   C1A 1457  33.436  29.149   7.153
  122POPC   D2A 1458  33.889  28.947   7.047
  122POPC   C3A 1459  34.068  28.946   6.571
  122POPC   C4A 1460  34.326  28.799   6.210
  122POPC   C1B 1461  32.780  28.840   7.121
  122POPC   C2B 1462  32.643  28.678   6.760
  122POPC   C3B 1463  32.979  28.785   6.411
  122POPC   C4B 1464  33.033  28.804   5.906
  123POPC   NC3 1465   8.880  31.457   7.718
  123POPC   PO4 1466   8.720  31.251   7.430
  123POPC   GL1 1467   8.880  31.111   7.128
  123POPC   GL2 1468   9.010  30.875   7.117
  123POPC   C1A 1469   9.095  31.250   6.828
  123POPC   D2A 1470   9.166  31.744   6.686
  123POPC   C3A 1471   9.065  31.604   6.230
  123POPC   C4A 1472   9.184  31.956   5.897
  123POPC   C1B 1473   9.231  30.710   6.810
  123POPC   C2B 1474   9.321  30.511   6.455
  123POPC   C3B 1475   9.259  30.258   6.020
  123POPC   C4B 1476   9.230  30.017   5.640
  124POPC   NC3 1477  28.599   6.134   7.822
  124POPC   PO4 1478  28.817   6.191   7.515
  124POPC   GL1 1479  28.569   6.227   7.186
  124POPC   GL2 1480  28.628   6.016   7.055
  124POPC   C1A 1481  28.638   6.375   6.757
  124POPC   D2A 1482  28.651   6.382   6.223
  124POPC   C3A 1483  28.707   5.922   6.017
  124POPC   C4A 1484  28.781   5.640   6.371
  124POPC   C1B 1485  28.848   5.917   6.771
  124POPC   C2B 1486  29.044   6.046   6.397
  124POPC   C3B 1487  29.199   6.203   6.002
  124POPC   C4B 1488  29.303   6.429   5.512
  125POPC   NC3 1489  13.080  14.969   7.610
  125POPC   PO4 1490  13.472  15.120   7.596
  125POPC   GL1 1491  13.555  15.211   7.177
  125POPC   GL2 1492  13.710  14.957   7.099
  125POPC   C1A 1493  13.891  15.465   7.001
  125POPC   D2A 1494  14.333  15.779   6.971
  125POPC   C3A 1495  14.133  15.945   6.543
  125POPC   C4A 1496  14.018  15.966   6.090
  125POPC   C1B 1497  13.444  14.878   6.821
  125POPC   C2B 1498  13.422  14.746   6.407
  125POPC   C3B 1499  13.265  14.637   5.929
  125POPC   C4B 1500  13.417  14.629   5.451
  126POPC   NC3 1501  27.851  28.309   7.354
  126POPC   PO4 1502  27.610  28.462   7.073
  126POPC   GL1 1503  27.825  28.733   6.778
  126POPC   GL2 1504  27.526  28.713   6.642
  126POPC   C1A 1505  28.033  28.858   6.402
  126POPC   D2A 1506  27.913  28.864   5.887
  126POPC   C3A 1507  27.885  29.066   5.435
  126POPC   C4A 1508  27.685  29.091   5.061
  126POPC   C1B 1509  27.462  28.732   6.278
  126POPC   C2B 1510  27.379  28.797   5.893
  126POPC   C3B 1511  27.269  28.871   5.424
  126POPC   C4B 1512  27.243  28.860   4.947
  127POPC   NC3 1513  22.899   5.392   7.621
  127POPC   PO4 1514  22.617   5.464   7.341
  127POPC   GL1 1515  22.685   5.577   6.998
  127POPC   GL2 1516  22.796   5.366   6.857
  127POPC   C1A 1517  22.297   5.791   6.739
  127POPC   D2A 1518  22.394   6.110   6.412
  127POPC   C3A 1519  22.452   6.318   6.030
  127POPC   C4A 1520  22.410   6.533   5.542
  127POPC   C1B 1521  22.836   5.261   6.499
  127POPC   C2B 1522  22.750   5.354   6.067
  127POPC   C3B 1523  22.581   5.247   5.610
  127POPC   C4B 1524  22.565   5.198   5.104
  128POPC   NC3 1525  23.084  18.104   8.397
  128POPC   PO4 1526  23.028  18.235   8.015
  128POPC   GL1 1527  22.848  18.394   7.734
  128POPC   GL2 1528  22.803  18.719   7.788
  128POPC   C1A 1529  22.882  18.418   7.278
  128POPC   D2A 1530  22.893  18.317   6.771
  128POPC   C3A 1531  22.947  18.035   6.338
  128POPC   C4A 1532  22.807  18.060   5.847
  128POPC   C1B 1533  22.962  18.867   7.527
  128POPC   C2B 1534  22.933  19.126   7.155
  128POPC   C3B 1535  22.841  19.200   6.671
  128POPC   C4B 1536  22.719  19.060   6.206
  129POPC   NC3 1537  30.872  33.631   7.671
  129POPC   PO4 1538  30.808  33.887   7.334
  129POPC   GL1 1539  30.900  33.732   6.950
  129POPC   GL2 1540  30.596  33.867   6.897
  129POPC   C1A 1541  31.037  33.325   6.832
  129POPC   D2A 1542  30.949  33.145   6.351
  129POPC   C3A 1543  31.040  32.837   6.067
  129POPC   C4A 1544  30.970  32.704   5.621
  129POPC   C1B 1545  30.535  33.904   6.519
  129POPC   C2B 1546  30.611  33.910   6.130
  129POPC   C3B 1547  30.828  33.846   5.726
  129POPC   C4B 1548  31.060  33.604   5.380
  130POPC   NC3 1549  12.537  23.152   7.610
  130POPC   PO4 1550  12.886  23.213   7.463
  130POPC   GL1 1551  13.149  23.205   7.135
  130POPC   GL2 1552  13.008  23.445   6.986
  130POPC   C1A 1553  13.244  22.913   6.781
  130POPC   D2A 1554  13.372  22.739   6.382
  130POPC   C3A 1555  13.576  22.558   6.031
  130POPC   C4A 1556  13.625  22.316   5.575
  130POPC   C1B 1557  13.123  23.361   6.670
  130POPC   C2B 1558  13.207  23.248   6.235
  130POPC   C3B 1559  13.138  23.155   5.732
  130POPC   C4B 1560  13.219  23.400   5.316
  131POPC   NC3 1561   5.764  35.680   7.495
  131POPC   PO4 1562   5.398  35.489   7.424
  131POPC   GL1 1563   5.159  35.665   7.060
  131POPC   GL2 1564   5.395  35.675   6.896
  131POPC   C1A 1565   4.916  35.756   6.770
  131POPC   D2A 1566   4.773  35.953   6.334
  131POPC   C3A 1567   4.766  36.045   5.857
  131POPC   C4A 1568   4.441  36.381   5.566
  131POPC   C1B 1569   5.391  35.444   6.542
  131POPC   C2B 1570   5.495  35.332   6.165
  131POPC   C3B 1571   5.581  35.571   5.768
  131POPC   C4B 1572   5.724  35.793   5.335
  132POPC   NC3 1573  28.846  19.053   7.634
  132POPC   PO4 1574  28.475  19.177   7.496
  132POPC   GL1 1575  28.359  19.153   7.114
  132POPC   GL2 1576  28.109  19.318   7.135
  132POPC   C1A 1577  28.522  19.259   6.753
  132POPC   D2A 1578  28.308  19.604   6.431
  132POPC   C3A 1579  28.469  19.824   6.143
  132POPC   C4A 1580  28.756  20.061   5.818
  132POPC   C1B 1581  27.849  19.200   6.877
  132POPC   C2B 1582  27.922  19.307   6.460
  132POPC   C3B 1583  28.016  19.582   6.018
  132POPC   C4B 1584  27.936  19.481   5.528
  133POPC   NC3 1585   4.587  14.420   7.870
  133POPC   PO4 1586   4.768  14.053   7.918
  133POPC   GL1 1587   4.841  14.078   7.603
  133POPC   GL2 1588   5.073  14.234   7.463
  133POPC   C1A 1589   4.665  13.730   7.384
  133POPC   D2A 1590   4.659  13.381   7.089
  133POPC   C3A 1591   4.343  13.314   6.745
  133POPC   C4A 1592   3.948  13.099   6.443
  133POPC   C1B 1593   4.968  14.305   7.168
  133POPC   C2B 1594   4.779  14.170   6.799
  133POPC   C3B 1595   4.471  14.043   6.464
  133POPC   C4B 1596   4.170  13.878   6.049
  134POPC   NC3 1597  24.643   4.374   7.727
  134POPC   PO4 1598  24.453   4.468   7.411
  134POPC   GL1 1599  24.424   4.484   7.006
  134POPC   GL2 1600  24.159   4.615   7.087
  134POPC   C1A 1601  24.323   4.791   6.657
  134POPC   D2A 1602  24.167   4.877   6.198
  134POPC   C3A 1603  23.733   5.040   6.238
  134POPC   C4A 1604  23.334   5.113   6.022
  134POPC   C1B 1605  23.895   4.619   6.830
  134POPC   C2B 1606  23.821   4.565   6.451
  134POPC   C3B 1607  23.856   4.563   5.968
  134POPC   C4B 1608  24.003   4.675   5.530
  135POPC   NC3 1609   9.509  22.072   7.058
  135POPC   PO4 1610   9.443  22.460   6.946
  135POPC   GL1 1611   9.344  22.579   6.567
  135POPC   GL2 1612   9.478  22.810   6.461
  135POPC   C1A 1613   9.174  22.398   6.192
  135POPC   D2A 1614   9.243  22.081   5.779
  135POPC   C3A 1615   8.959  22.319   5.546
  135POPC   C4A 1616   8.812  22.327   5.069
  135POPC   C1B 1617   9.540  22.727   6.150
  135POPC   C2B 1618   9.627  22.565   5.800
  135POPC   C3B 1619   9.549  22.379   5.307
  135POPC   C4B 1620   9.665  21.957   4.973
  136POPC   NC3 1621  29.899  31.830   7.043
  136POPC   PO4 1622  29.595  31.584   7.019
  136POPC   GL1 1623  29.668  31.602   6.566
  136POPC   GL2 1624  29.643  31.856   6.635
  136POPC   C1A 1625  29.676  31.417   6.158
  136POPC   D2A 1626  29.569  31.370   5.640
  136POPC   C3A 1627  29.345  31.221   5.255
  136POPC   C4A 1628  29.086  30.804   5.180
  136POPC   C1B 1629  29.564  31.880   6.248
  136POPC   C2B 1630  29.571  31.898   5.829
  136POPC   C3B 1631  29.585  32.345   5.508
  136POPC   C4B 1632  29.556  32.672   5.118
  137POPC   NC3 1633  20.152  17.205   7.466
  137POPC   PO4 1634  20.075  16.901   7.236
  137POPC   GL1 1635  20.160  16.749   6.904
  137POPC   GL2 1636  20.337  16.912   6.833
  137POPC   C1A 1637  19.979  16.742   6.531
  137POPC   D2A 1638  19.954  16.515   6.040
  137POPC   C3A 1639  19.843  16.476   5.594
  137POPC   C4A 1640  20.006  16.534   5.148
  137POPC   C1B 1641  20.315  17.085   6.473
  137POPC   C2B 1642  20.366  17.067   6.080
  137POPC   C3B 1643  20.130  16.878   5.701
  137POPC   C4B 1644  20.269  16.923   5.230
  138POPC   NC3 1645  20.199  11.629   7.655
  138POPC   PO4 1646  20.272  12.003   7.552
  138POPC   GL1 1647  20.127  12.202   7.250
  138POPC   GL2 1648  20.022  12.390   7.394
  138POPC   C1A 1649  20.113  12.239   6.836
  138POPC   D2A 1650  20.193  12.301   6.333
  138POPC   C3A 1651  20.263  12.452   5.912
  138POPC   C4A 1652  19.973  12.642   5.576
  138POPC   C1B 1653  19.780  12.493   7.138
  138POPC   C2B 1654  19.551  12.636   6.825
  138POPC   C3B 1655  19.327  12.373   6.527
  138POPC   C4B 1656  19.305  11.821   6.508
  139POPC   NC3 1657   4.264  18.065   7.332
  139POPC   PO4 1658   4.038  18.385   7.318
  139POPC   GL1 1659   3.944  18.535   6.932
  139POPC   GL2 1660   4.134  18.430   6.812
  139POPC   C1A 1661   3.737  18.423   6.536
  139POPC   D2A 1662   3.717  18.427   6.009
  139POPC   C3A 1663   3.444  18.792   5.855
  139POPC   C4A 1664   3.112  19.140   5.602
  139POPC   C1B 1665   4.171  18.423   6.464
  139POPC   C2B 1666   4.206  18.350   6.061
  139POPC   C3B 1667   4.171  18.252   5.589
  139POPC   C4B 1668   4.222  18.190   5.189
  140POPC   NC3 1669  11.526   3.314   7.595
  140POPC   PO4 1670  11.785   3.152   7.295
  140POPC   GL1 1671  11.556   3.327   6.991
  140POPC   GL2 1672  11.398   3.118   6.878
  140POPC   C1A 1673  11.661   3.608   6.756
  140POPC   D2A 1674  12.014   3.685   6.333
  140POPC   C3A 1675  12.168   3.837   5.913
  140POPC   C4A 1676  12.115   3.987   5.450
  140POPC   C1B 1677  11.395   3.334   6.577
  140POPC   C2B 1678  11.373   3.463   6.213
  140POPC   C3B 1679  11.312   3.666   5.765
  140POPC   C4B 1680  11.355   3.822   5.272
  141POPC   NC3 1681  33.440  10.551   7.101
  141POPC   PO4 1682  33.793  10.641   7.230
  141POPC   GL1 1683  34.045  10.464   6.971
  141POPC   GL2 1684  34.251  10.754   7.027
  141POPC   C1A 1685  34.297  10.415   6.631
  141POPC   D2A 1686  34.352  10.498   6.106
  141POPC   C3A 1687  34.293  10.149   5.787
  141POPC   C4A 1688  34.133  10.093   5.250
  141POPC   C1B 1689  34.400  10.864   6.698
  141POPC   C2B 1690  34.587  11.075   6.362
  141POPC   C3B 1691  34.896  11.226   5.948
  141POPC   C4B 1692  35.224  11.143   5.586
  142POPC   NC3 1693  21.854  34.122   7.676
  142POPC   PO4 1694  21.581  34.388   7.706
  142POPC   GL1 1695  21.622  34.497   7.293
  142POPC   GL2 1696  21.962  34.532   7.361
  142POPC   C1A 1697  21.579  34.256   6.907
  142POPC   D2A 1698  21.689  34.295   6.407
  142POPC   C3A 1699  21.715  34.463   5.926
  142POPC   C4A 1700  21.864  34.644   5.480
  142POPC   C1B 1701  22.016  34.474   6.995
  142POPC   C2B 1702  22.224  34.382   6.621
  142POPC   C3B 1703  22.182  34.545   6.126
  142POPC   C4B 1704  22.440  34.291   5.803
  143POPC   NC3 1705  18.621  26.328   7.590
  143POPC   PO4 1706  18.966  26.482   7.737
  143POPC   GL1 1707  19.038  26.406   7.344
  143POPC   GL2 1708  19.055  26.667   7.241
  143POPC   C1A 1709  19.016  26.232   6.935
  143POPC   D2A 1710  19.333  25.938   6.987
  143POPC   C3A 1711  19.657  25.839   6.683
  143POPC   C4A 1712  19.744  25.693   6.236
  143POPC   C1B 1713  18.918  26.715   6.888
  143POPC   C2B 1714  18.834  26.476   6.537
  143POPC   C3B 1715  18.930  26.160   6.234
  143POPC   C4B 1716  18.914  25.675   6.025
  144POPC   NC3 1717  10.371  16.475   7.704
  144POPC   PO4 1718  10.698  16.507   7.533
  144POPC   GL1 1719  10.631  16.490   7.175
  144POPC   GL2 1720  10.726  16.258   7.067
  144POPC   C1A 1721  10.605  16.713   6.777
  144POPC   D2A 1722  10.603  16.658   6.338
  144POPC   C3A 1723  10.402  16.829   5.928
  144POPC   C4A 1724  10.300  17.097   5.478
  144POPC   C1B 1725  10.759  16.245   6.703
  144POPC   C2B 1726  10.898  16.181   6.287
  144POPC   C3B 1727  11.110  16.068   5.874
  144POPC   C4B 1728  11.476  15.909   5.629
  145POPC   NC3 1729  14.464  15.390   7.205
  145POPC   PO4 1730  14.263  15.024   7.260
  145POPC   GL1 1731  14.075  15.019   6.910
  145POPC   GL2 1732  14.295  14.836   6.849
  145POPC   C1A 1733  13.732  15.132   6.652
  145POPC   D2A 1734  13.638  15.058   6.123
  145POPC   C3A 1735  13.769  14.858   5.715
  145POPC   C4A 1736  14.112  14.631   5.381
  145POPC   C1B 1737  14.395  14.876   6.489
  145POPC   C2B 1738  14.586  15.073   6.199
  145POPC   C3B 1739  14.602  15.406   5.806
  145POPC   C4B 1740  14.589  15.331   5.294
  146POPC   NC3 1741  15.629  17.242   7.931
  146POPC   PO4 1742  15.336  17.400   7.736
  146POPC   GL1 1743  15.118  17.640   7.416
  146POPC   GL2 1744  15.328  17.384   7.315
  146POPC   C1A 1745  15.220  17.728   6.991
  146POPC   D2A 1746  15.272  17.862   6.502
  146POPC   C3A 1747  15.527  18.247   6.329
  146POPC   C4A 1748  15.240  18.650   6.240
  146POPC   C1B 1749  15.363  17.311   6.989
  146POPC   C2B 1750  15.208  17.376   6.634
  146POPC   C3B 1751  15.173  17.405   6.141
  146POPC   C4B 1752  15.061  17.649   5.685
  147POPC   NC3 1753  18.069  18.962   8.124
  147POPC   PO4 1754  17.692  18.863   8.194
  147POPC   GL1 1755  17.718  18.714   7.839
  147POPC   GL2 1756  17.504  18.623   7.879
  147POPC   C1A 1757  17.534  18.599   7.429
  147POPC   D2A 1758  17.405  18.555   6.958
  147POPC   C3A 1759  17.372  18.578   6.423
  147POPC   C4A 1760  17.425  18.831   5.987
  147POPC   C1B 1761  17.205  18.550   7.689
  147POPC   C2B 1762  16.977  18.446   7.370
  147POPC   C3B 1763  16.916  18.502   6.890
  147POPC   C4B 1764  16.801  18.536   6.398
  148POPC   NC3 1765  29.504  24.639   7.487
  148POPC   PO4 1766  29.281  24.985   7.481
  148POPC   GL1 1767  29.432  24.929   7.059
  148POPC   GL2 1768  29.229  25.132   6.932
  148POPC   C1A 1769  29.835  24.821   6.882
  148POPC   D2A 1770  29.939  24.933   6.395
  148POPC   C3A 1771  29.998  25.028   5.894
  148POPC   C4A 1772  30.276  25.031   5.558
  148POPC   C1B 1773  29.004  24.986   6.704
  148POPC   C2B 1774  28.912  24.919   6.271
  148POPC   C3B 1775  28.918  25.191   5.838
  148POPC   C4B 1776  28.993  25.382   5.359
  149POPC   NC3 1777  18.425  12.759   7.277
  149POPC   PO4 1778  18.069  12.584   7.289
  149POPC   GL1 1779  17.992  12.417   6.959
  149POPC   GL2 1780  18.169  12.512   6.774
  149POPC   C1A 1781  17.988  12.095   6.670
  149POPC   D2A 1782  18.275  11.633   6.572
  149POPC   C3A 1783  18.181  11.448   6.133
  149POPC   C4A 1784  18.226  11.096   5.763
  149POPC   C1B 1785  18.086  12.460   6.389
  149POPC   C2B 1786  18.024  12.465   5.969
  149POPC   C3B 1787  18.143  12.119   5.592
  149POPC   C4B 1788  18.255  11.604   5.623
  150POPC   NC3 1789  22.327  12.767   7.585
  150POPC   PO4 1790  22.125  12.658   7.278
  150POPC   GL1 1791  22.111  12.488   6.886
  150POPC   GL2 1792  21.995  12.256   6.849
  150POPC   C1A 1793  22.118  12.720   6.562
  150POPC   D2A 1794  21.879  13.148   6.615
  150POPC   C3A 1795  21.776  13.437   6.251
  150POPC   C4A 1796  21.367  13.517   6.008
  150POPC   C1B 1797  21.953  12.308   6.501
  150POPC   C2B 1798  22.013  12.360   6.147
  150POPC   C3B 1799  22.034  12.149   5.739
  150POPC   C4B 1800  21.813  12.226   5.331
  151POPC   NC3 1801  33.468  28.650   7.406
  151POPC   PO4 1802  33.129  28.617   7.620
  151POPC   GL1 1803  32.927  28.482   7.369
  151POPC   GL2 1804  32.632  28.628   7.482
  151POPC   C1A 1805  33.206  28.648   6.989
  151POPC   D2A 1806  33.492  28.888   6.637
  151POPC   C3A 1807  33.632  28.839   6.182
  151POPC   C4A 1808  33.771  28.641   5.775
  151POPC   C1B 1809  32.396  28.620   7.210
  151POPC   C2B 1810  32.112  28.730   6.939
  151POPC   C3B 1811  32.203  28.856   6.506
  151POPC   C4B 1812  32.013  28.917   6.070
  152POPC   NC3 1813  11.448  30.015   7.297
  152POPC   PO4 1814  11.534  30.360   7.472
  152POPC   GL1 1815  11.767  30.512   7.220
  152POPC   GL2 1816  11.872  30.274   7.137
  152POPC   C1A 1817  11.775  30.793   6.924
  152POPC   D2A 1818  11.664  30.867   6.437
  152POPC   C3A 1819  11.689  31.213   6.081
  152POPC   C4A 1820  11.410  31.485   5.752
  152POPC   C1B 1821  12.118  30.313   6.860
  152POPC   C2B 1822  12.301  30.279   6.443
  152POPC   C3B 1823  12.444  30.458   5.907
  152POPC   C4B 1824  12.055  30.392   5.615
  153POPC   NC3 1825   5.037  29.075   7.629
  153POPC   PO4 1826   5.319  29.018   7.357
  153POPC   GL1 1827   5.461  29.256   7.079
  153POPC   GL2 1828   5.546  29.138   6.914
  153POPC   C1A 1829   5.303  29.466   6.696
  153POPC   D2A 1830   5.122  29.439   6.257
  153POPC   C3A 1831   5.250  29.641   5.817
  153POPC   C4A 1832   5.708  29.551   5.695
  153POPC   C1B 1833   5.426  28.953   6.625
  153POPC   C2B 1834   5.260  28.912   6.270
  153POPC   C3B 1835   5.148  29.022   5.836
  153POPC   C4B 1836   5.100  29.019   5.347
  154POPC   NC3 1837  32.271   7.574   7.426
  154POPC   PO4 1838  32.549   7.270   7.330
  154POPC   GL1 1839  32.536   7.211   6.955
  154POPC   GL2 1840  32.500   7.483   6.832
  154POPC   C1A 1841  32.711   6.941   6.677
  154POPC   D2A 1842  32.962   6.790   6.285
  154POPC   C3A 1843  32.840   6.828   5.846
  154POPC   C4A 1844  32.917   6.902   5.394
  154POPC   C1B 1845  32.643   7.382   6.523
  154POPC   C2B 1846  32.574   7.264   6.133
  154POPC   C3B 1847  32.561   7.194   5.592
  154POPC   C4B 1848  32.572   7.276   5.130
  155POPC   NC3 1849  24.011  21.071   7.831
  155POPC   PO4 1850  23.829  21.077   7.448
  155POPC   GL1 1851  24.068  20.806   7.164
  155POPC   GL2 1852  24.026  21.080   6.981
  155POPC   C1A 1853  24.130  20.515   6.893
  155POPC   D2A 1854  23.946  20.293   6.442
  155POPC   C3A 1855  23.852  20.100   6.007
  155POPC   C4A 1856  24.021  19.724   5.681
  155POPC   C1B 1857  23.977  21.032   6.639
  155POPC   C2B 1858  23.788  20.894   6.248
  155POPC   C3B 1859  23.934  20.589   5.892
  155POPC   C4B 1860  23.896  20.417   5.428
  156POPC   NC3 1861  27.876  17.026   7.313
  156POPC   PO4 1862  28.065  17.333   7.203
  156POPC   GL1 1863  28.193  17.311   6.843
  156POPC   GL2 1864  28.313  17.056   6.879
  156POPC   C1A 1865  28.242  17.495   6.431
  156POPC   D2A 1866  28.371  17.509   5.971
  156POPC   C3A 1867  28.066  17.818   5.685
  156POPC   C4A 1868  27.787  17.913   5.257
  156POPC   C1B 1869  28.363  17.029   6.473
  156POPC   C2B 1870  28.209  16.949   6.161
  156POPC   C3B 1871  27.984  16.804   5.779
  156POPC   C4B 1872  27.822  16.768   5.309
  157POPC   NC3 1873   4.839  22.036   7.708
  157POPC   PO4 1874   4.626  22.211   7.451
  157POPC   GL1 1875   4.827  22.178   7.103
  157POPC   GL2 1876   4.825  22.474   7.133
  157POPC   C1A 1877   4.754  22.185   6.656
  157POPC   D2A 1878   4.894  22.320   6.239
  157POPC   C3A 1879   4.742  22.034   5.954
  157POPC   C4A 1880   4.213  21.932   5.876
  157POPC   C1B 1881   4.708  22.649   6.786
  157POPC   C2B 1882   4.529  22.739   6.410
  157POPC   C3B 1883   4.661  22.601   5.935
  157POPC   C4B 1884   4.841  22.500   5.543
  158POPC   NC3 1885   7.347  28.672   6.936
  158POPC   PO4 1886   7.652  28.902   6.963
  158POPC   GL1 1887   7.902  28.841   6.607
  158POPC   GL2 1888   7.925  29.160   6.645
  158POPC   C1A 1889   7.789  28.653   6.256
  158POPC   D2A 1890   7.747  28.198   6.069
  158POPC   C3A 1891   7.553  28.085   5.664
  158POPC   C4A 1892   7.841  28.255   5.249
  158POPC   C1B 1893   8.021  29.170   6.263
  158POPC   C2B 1894   7.999  28.952   5.869
  158POPC   C3B 1895   7.627  28.693   5.678
  158POPC   C4B 1896   7.425  28.686   5.289
  159POPC   NC3 1897  34.045  20.429   7.806
  159POPC   PO4 1898  33.872  20.064   7.753
  159POPC   GL1 1899  33.946  19.978   7.338
  159POPC   GL2 1900  34.118  20.268   7.338
  159POPC   C1A 1901  33.655  19.725   7.089
  159POPC   D2A 1902  33.712  19.782   6.568
  159POPC   C3A 1903  34.079  19.702   6.296
  159POPC   C4A 1904  34.428  19.829   6.003
  159POPC   C1B 1905  34.222  20.486   7.083
  159POPC   C2B 1906  34.453  20.612   6.852
  159POPC   C3B 1907  34.736  20.770   6.537
  159POPC   C4B 1908  34.818  20.908   6.061
  160POPC   NC3 1909   6.204  27.121   7.879
  160POPC   PO4 1910   6.342  27.202   7.484
  160POPC   GL1 1911   5.993  27.393   7.180
  160POPC   GL2 1912   6.232  27.539   7.043
  160POPC   C1A 1913   5.724  27.178   6.883
  160POPC   D2A 1914   5.385  26.866   6.917
  160POPC   C3A 1915   5.537  26.942   6.469
  160POPC   C4A 1916   5.670  26.980   6.012
  160POPC   C1B 1917   6.228  27.415   6.743
  160POPC   C2B 1918   5.962  27.384   6.376
  160POPC   C3B 1919   5.845  27.484   5.903
  160POPC   C4B 1920   5.913  27.547   5.435
  161POPC   NC3 1921  35.987   3.518   7.813
  161POPC   PO4 1922  35.789   3.265   7.575
  161POPC   GL1 1923  35.930   3.068   7.225
  161POPC   GL2 1924  36.050   3.327   7.125
  161POPC   C1A 1925  36.288   2.871   7.097
  161POPC   D2A 1926  36.625   2.920   6.750
  161POPC   C3A 1927  36.668   3.000   6.279
  161POPC   C4A 1928  36.698   3.082   5.791
  161POPC   C1B 1929  36.062   3.273   6.772
  161POPC   C2B 1930  36.151   2.968   6.514
  161POPC   C3B 1931  36.205   2.870   6.058
  161POPC   C4B 1932  36.373   2.614   5.654
  162POPC   NC3 1933  14.953   9.628   7.862
  162POPC   PO4 1934  14.907  10.035   7.869
  162POPC   GL1 1935  14.679  10.007   7.488
  162POPC   GL2 1936  14.599   9.706   7.557
  162POPC   C1A 1937  14.828   9.982   7.065
  162POPC   D2A 1938  14.616  10.283   6.678
  162POPC   C3A 1939  14.429  10.178   6.201
  162POPC   C4A 1940  14.197   9.748   6.060
  162POPC   C1B 1941  14.629   9.623   7.185
  162POPC   C2B 1942  14.615   9.606   6.758
  162POPC   C3B 1943  14.568   9.513   6.280
  162POPC   C4B 1944  14.668   9.810   5.876
  163POPC   NC3 1945   3.547  26.762   7.590
  163POPC   PO4 1946   3.636  27.101   7.422
  163POPC   GL1 1947   3.874  27.003   7.095
  163POPC   GL2 1948   3.708  26.968   6.904
  163POPC   C1A 1949   4.208  26.948   6.820
  163POPC   D2A 1950   4.374  26.759   6.376
  163POPC   C3A 1951   4.734  26.807   6.115
  163POPC   C4A 1952   5.110  26.817   5.794
  163POPC   C1B 1953   3.763  26.935   6.566
  163POPC   C2B 1954   3.945  26.837   6.206
  163POPC   C3B 1955   4.253  26.798   5.881
  163POPC   C4B 1956   4.489  26.419   5.714
  164POPC   NC3 1957  16.431  23.271   7.344
  164POPC   PO4 1958  16.778  23.075   7.548
  164POPC   GL1 1959  16.913  22.624   7.514
  164POPC   GL2 1960  17.150  22.685   7.382
  164POPC   C1A 1961  16.747  22.428   7.201
  164POPC   D2A 1962  16.637  22.285   6.731
  164POPC   C3A 1963  16.723  22.380   6.276
  164POPC   C4A 1964  16.686  22.407   5.801
  164POPC   C1B 1965  17.122  22.728   7.013
  164POPC   C2B 1966  17.078  22.662   6.604
  164POPC   C3B 1967  17.066  22.646   6.088
  164POPC   C4B 1968  17.170  22.552   5.634
  165POPC   NC3 1969   7.730  22.988   7.321
  165POPC   PO4 1970   7.948  22.720   7.240
  165POPC   GL1 1971   7.741  22.808   6.898
  165POPC   GL2 1972   7.565  22.623   6.874
  165POPC   C1A 1973   7.564  23.007   6.530
  165POPC   D2A 1974   7.297  23.040   6.130
  165POPC   C3A 1975   7.123  23.193   5.728
  165POPC   C4A 1976   6.958  23.604   5.592
  165POPC   C1B 1977   7.293  22.617   6.610
  165POPC   C2B 1978   7.069  22.633   6.281
  165POPC   C3B 1979   6.875  22.746   5.903
  165POPC   C4B 1980   6.675  22.953   5.528
  166POPC   NC3 1981   2.132  25.089   7.489
  166POPC   PO4 1982   2.458  25.198   7.651
  166POPC   GL1 1983   2.704  24.971   7.432
  166POPC   GL2 1984   2.578  25.139   7.255
  166POPC   C1A 1985   2.820  24.739   7.138
  166POPC   D2A 1986   2.756  24.349   6.812
  166POPC   C3A 1987   2.559  24.515   6.436
  166POPC   C4A 1988   2.595  24.514   5.957
  166POPC   C1B 1989   2.751  25.135   6.968
  166POPC   C2B 1990   2.865  24.941   6.665
  166POPC   C3B 1991   2.918  24.825   6.184
  166POPC   C4B 1992   3.162  24.438   5.956
  167POPC   NC3 1993  15.869  13.723   7.130
  167POPC   PO4 1994  16.148  13.429   7.117
  167POPC   GL1 1995  16.183  13.621   6.752
  167POPC   GL2 1996  16.041  13.463   6.704
  167POPC   C1A 1997  16.385  13.755   6.390
  167POPC   D2A 1998  16.453  13.891   5.910
  167POPC   C3A 1999  16.625  13.860   5.491
  167POPC   C4A 2000  16.427  13.775   5.101
  167POPC   C1B 2001  15.919  13.499   6.397
  167POPC   C2B 2002  16.070  13.538   6.010
  167POPC   C3B 2003  16.026  13.786   5.529
  167POPC   C4B 2004  16.123  14.249   5.291
  168POPC   NC3 2005  32.953   5.320   7.726
  168POPC   PO4 2006  32.806   5.660   7.831
  168POPC   GL1 2007  32.724   5.669   7.431
  168POPC   GL2 2008  33.049   5.570   7.319
  168POPC   C1A 2009  32.736   6.061   7.213
  168POPC   D2A 2010  32.671   6.300   6.790
  168POPC   C3A 2011  32.943   6.220   6.381
  168POPC   C4A 2012  32.767   6.368   5.986
  168POPC   C1B 2013  33.032   5.691   6.965
  168POPC   C2B 2014  33.148   5.768   6.570
  168POPC   C3B 2015  33.246   5.923   6.133
  168POPC   C4B 2016  33.079   5.958   5.679
  169POPC   NC3 2017  12.740   6.749   7.465
  169POPC   PO4 2018  12.390   6.800   7.676
  169POPC   GL1 2019  12.226   7.180   7.429
  169POPC   GL2 2020  12.043   6.967   7.352
  169POPC   C1A 2021  12.443   7.463   7.142
  169POPC   D2A 2022  12.549   7.618   6.715
  169POPC   C3A 2023  12.665   7.528   6.189
  169POPC   C4A 2024  12.621   7.363   5.774
  169POPC   C1B 2025  12.027   7.147   7.015
  169POPC   C2B 2026  12.146   7.299   6.624
  169POPC   C3B 2027  12.151   7.336   6.169
  169POPC   C4B 2028  12.188   7.264   5.682
  170POPC   NC3 2029  11.249  31.624   7.752
  170POPC   PO4 2030  11.356  31.272   7.559
  170POPC   GL1 2031  11.607  31.198   7.272
  170POPC   GL2 2032  11.551  31.183   7.061
  170POPC   C1A 2033  11.916  31.443   7.151
  170POPC   D2A 2034  12.037  31.629   6.738
  170POPC   C3A 2035  12.143  31.842   6.387
  170POPC   C4A 2036  11.729  32.063   6.322
  170POPC   C1B 2037  11.617  31.287   6.630
  170POPC   C2B 2038  11.547  31.581   6.325
  170POPC   C3B 2039  11.836  31.736   5.988
  170POPC   C4B 2040  12.130  32.141   5.935
  171POPC   NC3 2041   0.123  10.396   8.200
  171POPC   PO4 2042   0.273  10.332   7.845
  171POPC   GL1 2043   0.072  10.404   7.481
  171POPC   GL2 2044   0.337  10.274   7.321
  171POPC   C1A 2045  -0.099  10.250   7.046
  171POPC   D2A 2046  -0.142  10.243   6.573
  171POPC   C3A 2047  -0.299  10.082   6.215
  171POPC   C4A 2048  -0.368   9.835   5.749
  171POPC   C1B 2049   0.486  10.449   7.121
  171POPC   C2B 2050   0.420  10.545   6.731
  171POPC   C3B 2051   0.336  10.767   6.298
  171POPC   C4B 2052   0.540  10.936   5.874
  172POPC   NC3 2053  13.836   1.872   7.253
  172POPC   PO4 2054  14.172   2.026   7.341
  172POPC   GL1 2055  14.485   1.989   7.057
  172POPC   GL2 2056  14.533   2.246   6.997
  172POPC   C1A 2057  14.508   1.806   6.622
  172POPC   D2A 2058  14.451   1.858   6.094
  172POPC   C3A 2059  14.464   2.112   5.666
  172POPC   C4A 2060  14.265   2.652   5.753
  172POPC   C1B 2061  14.632   2.357   6.633
  172POPC   C2B 2062  14.646   2.418   6.275
  172POPC   C3B 2063  14.709   2.550   5.804
  172POPC   C4B 2064  14.783   2.534   5.313
  173POPC   NC3 2065  32.722  23.902   7.758
  173POPC   PO4 2066  33.087  23.871   7.699
  173POPC   GL1 2067  32.944  23.729   7.370
  173POPC   GL2 2068  33.124  23.960   7.236
  173POPC   C1A 2069  32.968  23.555   6.900
  173POPC   D2A 2070  32.939  23.616   6.379
  173POPC   C3A 2071  32.708  23.381   6.031
  173POPC   C4A 2072  32.573  23.060   5.675
  173POPC   C1B 2073  33.361  23.788   6.991
  173POPC   C2B 2074  33.372  23.826   6.590
  173POPC   C3B 2075  33.325  23.875   6.091
  173POPC   C4B 2076  32.977  23.783   5.764
  174POPC   NC3 2077  14.467  32.654   7.622
  174POPC   PO4 2078  14.786  32.862   7.477
  174POPC   GL1 2079  14.855  33.076   7.105
  174POPC   GL2 2080  15.125  32.960   7.094
  174POPC   C1A 2081  14.539  32.854   6.835
  174POPC   D2A 2082  14.360  32.676   6.377
  174POPC   C3A 2083  14.328  32.369   6.069
  174POPC   C4A 2084  14.630  32.012   5.921
  174POPC   C1B 2085  15.082  32.829   6.763
  174POPC   C2B 2086  14.929  32.720   6.360
  174POPC   C3B 2087  14.793  32.546   5.912
  174POPC   C4B 2088  15.003  32.400   5.538
  175POPC   NC3 2089  21.466  21.617   7.544
  175POPC   PO4 2090  21.517  21.971   7.333
  175POPC   GL1 2091  21.325  21.961   6.942
  175POPC   GL2 2092  21.635  22.027   6.949
  175POPC   C1A 2093  21.222  21.854   6.544
  175POPC   D2A 2094  20.887  21.559   6.305
  175POPC   C3A 2095  20.876  21.379   5.875
  175POPC   C4A 2096  20.933  21.146   5.483
  175POPC   C1B 2097  21.723  21.805   6.616
  175POPC   C2B 2098  21.767  21.758   6.215
  175POPC   C3B 2099  21.799  21.645   5.738
  175POPC   C4B 2100  21.708  21.362   5.374
  176POPC   NC3 2101  35.337  33.232   7.646
  176POPC   PO4 2102  35.482  32.856   7.471
  176POPC   GL1 2103  35.631  32.937   7.125
  176POPC   GL2 2104  35.531  33.189   7.140
  176POPC   C1A 2105  35.483  32.902   6.653
  176POPC   D2A 2106  35.349  32.971   6.208
  176POPC   C3A 2107  35.247  32.960   5.792
  176POPC   C4A 2108  35.511  32.647   5.465
  176POPC   C1B 2109  35.419  33.308   6.837
  176POPC   C2B 2110  35.318  33.436   6.495
  176POPC   C3B 2111  35.163  33.604   6.088
  176POPC   C4B 2112  34.923  33.989   5.921
  177POPC   NC3 2113   4.128   4.959   7.779
  177POPC   PO4 2114   4.335   4.988   7.424
  177POPC   GL1 2115   4.312   5.290   7.163
  177POPC   GL2 2116   3.996   5.186   7.091
  177POPC   C1A 2117   4.549   5.327   6.807
  177POPC   D2A 2118   4.887   5.054   6.487
  177POPC   C3A 2119   4.772   5.025   6.060
  177POPC   C4A 2120   4.853   4.902   5.596
  177POPC   C1B 2121   3.843   5.003   6.779
  177POPC   C2B 2122   3.757   4.971   6.337
  177POPC   C3B 2123   3.756   4.987   5.828
  177POPC   C4B 2124   3.988   4.812   5.391
  178POPC   NC3 2125  29.307  35.436   7.610
  178POPC   PO4 2126  29.361  35.818   7.450
  178POPC   GL1 2127  29.136  35.785   7.064
  178POPC   GL2 2128  29.393  35.976   6.996
  178POPC   C1A 2129  29.185  35.633   6.698
  178POPC   D2A 2130  29.437  35.935   6.432
  178POPC   C3A 2131  29.512  36.055   6.021
  178POPC   C4A 2132  29.531  36.054   5.491
  178POPC   C1B 2133  29.660  35.819   6.849
  178POPC   C2B 2134  29.655  35.485   6.564
  178POPC   C3B 2135  29.692  35.586   6.171
  178POPC   C4B 2136  29.782  35.622   5.644
  179POPC   NC3 2137  28.975  17.372   7.164
  179POPC   PO4 2138  29.052  17.759   7.085
  179POPC   GL1 2139  28.978  17.895   6.673
  179POPC   GL2 2140  28.664  17.911   6.740
  179POPC   C1A 2141  29.139  17.873   6.262
  179POPC   D2A 2142  29.426  17.858   5.892
  179POPC   C3A 2143  29.595  17.547   5.603
  179POPC   C4A 2144  29.473  17.392   5.097
  179POPC   C1B 2145  28.661  18.000   6.347
  179POPC   C2B 2146  28.453  17.963   5.986
  179POPC   C3B 2147  28.319  18.256   5.662
  179POPC   C4B 2148  28.052  18.531   5.385
  180POPC   NC3 2149  28.983   0.474   8.005
  180POPC   PO4 2150  28.752   0.482   7.677
  180POPC   GL1 2151  28.815   0.429   7.232
  180POPC   GL2 2152  28.525   0.524   7.146
  180POPC   C1A 2153  28.903   0.160   6.880
  180POPC   D2A 2154  28.954   0.046   6.406
  180POPC   C3A 2155  28.815  -0.050   5.980
  180POPC   C4A 2156  29.051   0.131   5.618
  180POPC   C1B 2157  28.594   0.434   6.756
  180POPC   C2B 2158  28.639   0.397   6.331
  180POPC   C3B 2159  28.523   0.321   5.847
  180POPC   C4B 2160  28.652   0.435   5.384
  181POPC   NC3 2161  12.829  16.754   7.549
  181POPC   PO4 2162  12.541  17.016   7.620
  181POPC   GL1 2163  12.386  16.747   7.346
  181POPC   GL2 2164  12.279  16.919   7.183
  181POPC   C1A 2165  12.678  16.734   7.055
  181POPC   D2A 2166  12.765  16.667   6.606
  181POPC   C3A 2167  12.730  16.587   6.147
  181POPC   C4A 2168  12.654  16.363   5.747
  181POPC   C1B 2169  12.212  16.981   6.822
  181POPC   C2B 2170  12.178  16.819   6.474
  181POPC   C3B 2171  12.101  16.790   6.004
  181POPC   C4B 2172  11.972  17.066   5.608
  182POPC   NC3 2173   7.570  20.856   7.394
  182POPC   PO4 2174   7.257  20.986   7.140
  182POPC   GL1 2175   7.381  21.161   6.730
  182POPC   GL2 2176   7.099  21.289   6.719
  182POPC   C1A 2177   7.507  21.257   6.299
  182POPC   D2A 2178   7.401  21.458   5.834
  182POPC   C3A 2179   7.567  21.464   5.407
  182POPC   C4A 2180   7.594  21.829   5.126
  182POPC   C1B 2181   7.158  21.563   6.470
  182POPC   C2B 2182   7.188  21.817   6.167
  182POPC   C3B 2183   7.458  22.015   5.861
  182POPC   C4B 2184   7.795  22.384   5.927
  183POPC   NC3 2185  17.457  22.239   7.669
  183POPC   PO4 2186  17.599  22.603   7.633
  183POPC   GL1 2187  17.605  22.495   7.225
  183POPC   GL2 2188  17.547  22.771   7.097
  183POPC   C1A 2189  17.820  22.335   6.931
  183POPC   D2A 2190  17.886  22.159   6.469
  183POPC   C3A 2191  17.990  22.117   6.064
  183POPC   C4A 2192  18.037  22.134   5.581
  183POPC   C1B 2193  17.524  22.754   6.776
  183POPC   C2B 2194  17.482  22.860   6.382
  183POPC   C3B 2195  17.506  22.848   5.899
  183POPC   C4B 2196  17.573  22.785   5.430
  184POPC   NC3 2197  30.443  34.162   7.248
  184POPC   PO4 2198  30.658  34.433   7.040
  184POPC   GL1 2199  30.678  34.314   6.712
  184POPC   GL2 2200  30.911  34.154   6.661
  184POPC   C1A 2201  30.444  34.529   6.319
  184POPC   D2A 2202  30.309  34.250   5.921
  184POPC   C3A 2203  30.381  33.941   5.627
  184POPC   C4A 2204  30.555  33.633   5.343
  184POPC   C1B 2205  30.958  34.164   6.286
  184POPC   C2B 2206  30.782  34.299   5.909
  184POPC   C3B 2207  30.531  34.453   5.481
  184POPC   C4B 2208  30.296  34.461   5.040
  185POPC   NC3 2209   5.142  30.005   8.050
  185POPC   PO4 2210   5.376  30.301   7.928
  185POPC   GL1 2211   5.511  30.100   7.639
  185POPC   GL2 2212   5.258  30.028   7.477
  185POPC   C1A 2213   5.735  30.122   7.308
  185POPC   D2A 2214   5.617  30.103   6.769
  185POPC   C3A 2215   5.535  30.042   6.346
  185POPC   C4A 2216   5.679  30.005   5.887
  185POPC   C1B 2217   5.040  30.252   7.224
  185POPC   C2B 2218   4.959  30.263   6.814
  185POPC   C3B 2219   4.991  30.432   6.351
  185POPC   C4B 2220   5.166  30.262   5.988
  186POPC   NC3 2221  17.793  12.053   7.748
  186POPC   PO4 2222  17.671  11.757   7.489
  186POPC   GL1 2223  17.484  11.757   7.145
  186POPC   GL2 2224  17.301  12.031   7.158
  186POPC   C1A 2225  17.229  11.440   7.069
  186POPC   D2A 2226  17.196  11.360   6.574
  186POPC   C3A 2227  17.055  11.174   6.186
  186POPC   C4A 2228  17.208  11.113   5.690
  186POPC   C1B 2229  17.067  12.120   6.858
  186POPC   C2B 2230  16.970  12.069   6.498
  186POPC   C3B 2231  16.923  11.975   6.003
  186POPC   C4B 2232  16.932  12.025   5.478
  187POPC   NC3 2233  19.228  13.864   7.186
  187POPC   PO4 2234  19.461  13.581   7.338
  187POPC   GL1 2235  19.722  13.523   7.118
  187POPC   GL2 2236  19.858  13.260   7.143
  187POPC   C1A 2237  19.480  13.640   6.745
  187POPC   D2A 2238  19.462  13.647   6.277
  187POPC   C3A 2239  19.544  13.646   5.830
  187POPC   C4A 2240  19.522  13.866   5.390
  187POPC   C1B 2241  19.776  13.068   6.870
  187POPC   C2B 2242  19.579  12.987   6.524
  187POPC   C3B 2243  19.275  12.832   6.145
  187POPC   C4B 2244  18.899  12.539   6.213
  188POPC   NC3 2245  27.061   5.288   7.439
  188POPC   PO4 2246  26.717   5.397   7.303
  188POPC   GL1 2247  26.691   5.377   6.827
  188POPC   GL2 2248  27.022   5.319   6.860
  188POPC   C1A 2249  26.438   5.597   6.575
  188POPC   D2A 2250  26.290   5.781   6.075
  188POPC   C3A 2251  26.269   5.881   5.686
  188POPC   C4A 2252  26.266   6.193   5.294
  188POPC   C1B 2253  26.963   5.365   6.466
  188POPC   C2B 2254  26.758   5.478   6.143
  188POPC   C3B 2255  26.693   5.704   5.715
  188POPC   C4B 2256  26.520   5.766   5.288
  189POPC   NC3 2257  30.235  23.310   7.335
  189POPC   PO4 2258  30.234  23.012   7.120
  189POPC   GL1 2259  30.165  23.087   6.714
  189POPC   GL2 2260  30.243  22.812   6.649
  189POPC   C1A 2261  30.100  23.420   6.436
  189POPC   D2A 2262  30.105  23.621   5.929
  189POPC   C3A 2263  30.002  23.588   5.413
  189POPC   C4A 2264  30.122  23.701   4.958
  189POPC   C1B 2265  30.402  22.645   6.302
  189POPC   C2B 2266  30.354  22.478   5.939
  189POPC   C3B 2267  30.213  22.379   5.545
  189POPC   C4B 2268  30.442  22.147   5.234
  190POPC   NC3 2269   1.641   8.331   7.872
  190POPC   PO4 2270   1.960   8.531   7.760
  190POPC   GL1 2271   1.944   8.595   7.347
  190POPC   GL2 2272   1.890   8.898   7.347
  190POPC   C1A 2273   2.009   8.560   6.938
  190POPC   D2A 2274   1.981   8.584   6.402
  190POPC   C3A 2275   2.385   8.652   6.195
  190POPC   C4A 2276   2.840   8.682   6.159
  190POPC   C1B 2277   1.905   8.969   7.053
  190POPC   C2B 2278   2.060   9.112   6.729
  190POPC   C3B 2279   2.438   9.338   6.654
  190POPC   C4B 2280   2.764   9.210   6.281
  191POPC   NC3 2281  16.004  21.944   7.828
  191POPC   PO4 2282  16.336  22.163   7.603
  191POPC   GL1 2283  16.162  22.140   7.285
  191POPC   GL2 2284  16.014  21.942   7.326
  191POPC   C1A 2285  16.147  22.237   6.877
  191POPC   D2A 2286  16.264  22.308   6.380
  191POPC   C3A 2287  16.082  22.245   5.869
  191POPC   C4A 2288  15.737  22.424   5.552
  191POPC   C1B 2289  15.989  21.804   6.962
  191POPC   C2B 2290  15.928  21.801   6.550
  191POPC   C3B 2291  16.179  21.868   6.158
  191POPC   C4B 2292  16.591  21.940   5.918
  192POPC   NC3 2293   5.282  19.047   7.547
  192POPC   PO4 2294   5.397  18.776   7.313
  192POPC   GL1 2295   5.771  18.757   7.014
  192POPC   GL2 2296   5.624  18.477   6.929
  192POPC   C1A 2297   5.840  18.763   6.627
  192POPC   D2A 2298   5.832  18.689   6.189
  192POPC   C3A 2299   5.785  18.551   5.753
  192POPC   C4A 2300   5.728  18.226   5.409
  192POPC   C1B 2301   5.624  18.204   6.607
  192POPC   C2B 2302   5.742  18.066   6.215
  192POPC   C3B 2303   5.870  17.882   5.781
  192POPC   C4B 2304   5.746  17.578   5.398
  193POPC   NC3 2305   4.539  23.399   7.419
  193POPC   PO4 2306   4.824  23.145   7.447
  193POPC   GL1 2307   4.971  23.255   7.080
  193POPC   GL2 2308   4.840  23.463   7.052
  193POPC   C1A 2309   5.100  23.109   6.724
  193POPC   D2A 2310   5.018  22.899   6.307
  193POPC   C3A 2311   4.807  23.186   5.949
  193POPC   C4A 2312   4.666  23.393   5.505
  193POPC   C1B 2313   4.786  23.533   6.677
  193POPC   C2B 2314   4.832  23.579   6.262
  193POPC   C3B 2315   4.589  23.796   5.878
  193POPC   C4B 2316   4.664  24.283   5.717
  194POPC   NC3 2317  26.743  14.322   8.524
  194POPC   PO4 2318  27.010  14.178   8.325
  194POPC   GL1 2319  26.997  14.256   7.930
  194POPC   GL2 2320  26.724  14.121   7.875
  194POPC   C1A 2321  27.344  14.279   7.703
  194POPC   D2A 2322  27.409  14.184   7.245
  194POPC   C3A 2323  27.533  14.283   6.882
  194POPC   C4A 2324  27.664  14.385   6.326
  194POPC   C1B 2325  26.952  14.078   7.516
  194POPC   C2B 2326  27.024  13.974   7.102
  194POPC   C3B 2327  27.083  14.127   6.621
  194POPC   C4B 2328  27.153  14.206   6.116
  195POPC   NC3 2329  30.978  25.524   7.106
  195POPC   PO4 2330  31.343  25.417   7.103
  195POPC   GL1 2331  31.734  25.485   7.009
  195POPC   GL2 2332  31.687  25.758   7.056
  195POPC   C1A 2333  31.946  25.571   6.694
  195POPC   D2A 2334  32.197  25.638   6.228
  195POPC   C3A 2335  32.372  25.278   5.978
  195POPC   C4A 2336  32.555  24.931   5.641
  195POPC   C1B 2337  31.854  26.002   6.811
  195POPC   C2B 2338  31.787  26.040   6.381
  195POPC   C3B 2339  31.994  26.057   5.980
  195POPC   C4B 2340  32.199  25.889   5.593
  196POPC   NC3 2341   1.819  14.867   8.092
  196POPC   PO4 2342   1.470  14.918   8.260
  196POPC   GL1 2343   1.299  14.910   7.917
  196POPC   GL2 2344   1.245  14.767   7.772
  196POPC   C1A 2345   1.534  15.216   7.653
  196POPC   D2A 2346   1.795  15.113   7.221
  196POPC   C3A 2347   1.848  14.627   7.155
  196POPC   C4A 2348   2.185  14.289   7.192
  196POPC   C1B 2349   1.238  14.903   7.449
  196POPC   C2B 2350   1.361  14.925   7.099
  196POPC   C3B 2351   1.698  14.811   6.732
  196POPC   C4B 2352   2.030  14.916   6.305
  197POPC   NC3 2353  23.541  26.401   7.600
  197POPC   PO4 2354  23.604  26.663   7.305
  197POPC   GL1 2355  23.737  26.547   6.925
  197POPC   GL2 2356  23.757  26.873   6.946
  197POPC   C1A 2357  23.612  26.250   6.488
  197POPC   D2A 2358  23.538  26.174   6.035
  197POPC   C3A 2359  23.179  26.162   5.750
  197POPC   C4A 2360  22.729  25.952   5.575
  197POPC   C1B 2361  23.643  26.951   6.598
  197POPC   C2B 2362  23.448  26.713   6.301
  197POPC   C3B 2363  23.304  26.617   5.926
  197POPC   C4B 2364  23.133  26.487   5.410
  198POPC   NC3 2365  16.110  11.657   8.087
  198POPC   PO4 2366  15.734  11.678   8.040
  198POPC   GL1 2367  15.950  11.842   7.697
  198POPC   GL2 2368  16.071  11.622   7.649
  198POPC   C1A 2369  15.739  11.901   7.257
  198POPC   D2A 2370  15.330  11.705   7.004
  198POPC   C3A 2371  15.020  11.676   6.666
  198POPC   C4A 2372  15.058  11.411   6.330
  198POPC   C1B 2373  15.986  11.450   7.325
  198POPC   C2B 2374  15.620  11.244   7.112
  198POPC   C3B 2375  15.227  11.189   6.777
  198POPC   C4B 2376  15.019  10.933   6.427
  199POPC   NC3 2377  23.247   8.183   7.991
  199POPC   PO4 2378  23.494   8.184   7.674
  199POPC   GL1 2379  23.554   8.102   7.269
  199POPC   GL2 2380  23.178   8.019   7.264
  199POPC   C1A 2381  23.757   8.359   6.932
  199POPC   D2A 2382  23.873   8.420   6.439
  199POPC   C3A 2383  24.243   8.415   6.153
  199POPC   C4A 2384  24.666   8.521   5.714
  199POPC   C1B 2385  23.098   7.960   6.865
  199POPC   C2B 2386  23.193   8.046   6.467
  199POPC   C3B 2387  23.493   7.946   6.070
  199POPC   C4B 2388  23.876   8.136   5.876
  200POPC   NC3 2389  30.377  29.304   7.960
  200POPC   PO4 2390  30.135  29.221   7.663
  200POPC   GL1 2391  30.283  28.889   7.386
  200POPC   GL2 2392  30.134  29.076   7.187
  200POPC   C1A 2393  30.527  28.751   7.079
  200POPC   D2A 2394  30.826  28.695   6.680
  200POPC   C3A 2395  30.720  28.632   6.228
  200POPC   C4A 2396  30.253  28.518   6.140
  200POPC   C1B 2397  30.307  29.042   6.840
  200POPC   C2B 2398  30.409  28.914   6.467
  200POPC   C3B 2399  30.393  28.984   5.968
  200POPC   C4B 2400  30.232  29.124   5.533
  201POPC   NC3 2401  25.792   4.605   7.872
  201POPC   PO4 2402  26.054   4.696   7.579
  201POPC   GL1 2403  26.031   4.894   7.182
  201POPC   GL2 2404  25.919   4.716   7.072
  201POPC   C1A 2405  26.176   5.077   6.861
  201POPC   D2A 2406  26.365   5.068   6.409
  201POPC   C3A 2407  26.556   4.942   6.037
  201POPC   C4A 2408  26.866   5.119   5.735
  201POPC   C1B 2409  25.950   4.686   6.670
  201POPC   C2B 2410  25.973   4.821   6.238
  201POPC   C3B 2411  26.116   4.846   5.775
  201POPC   C4B 2412  26.067   4.845   5.307
  202POPC   NC3 2413  33.221   2.357   7.597
  202POPC   PO4 2414  33.357   2.525   7.250
  202POPC   GL1 2415  33.035   2.795   6.976
  202POPC   GL2 2416  33.192   2.698   6.780
  202POPC   C1A 2417  32.645   3.093   6.910
  202POPC   D2A 2418  32.251   3.300   6.680
  202POPC   C3A 2419  31.874   3.549   6.680
  202POPC   C4A 2420  31.703   3.646   6.207
  202POPC   C1B 2421  33.270   3.039   6.542
  202POPC   C2B 2422  33.269   3.167   6.179
  202POPC   C3B 2423  33.229   3.359   5.751
  202POPC   C4B 2424  33.219   3.208   5.322
  203POPC   NC3 2425  19.650  15.409   7.284
  203POPC   PO4 2426  19.614  15.057   7.499
  203POPC   GL1 2427  19.257  15.157   7.258
  203POPC   GL2 2428  19.026  15.247   7.397
  203POPC   C1A 2429  19.311  15.267   6.865
  203POPC   D2A 2430  19.649  15.118   6.448
  203POPC   C3A 2431  19.791  15.396   6.190
  203POPC   C4A 2432  19.782  15.524   5.680
  203POPC   C1B 2433  18.761  15.177   7.171
  203POPC   C2B 2434  18.441  14.932   7.008
  203POPC   C3B 2435  18.051  14.987   6.685
  203POPC   C4B 2436  18.019  15.127   6.286
  204POPC   NC3 2437   0.000   9.301   7.949
  204POPC   PO4 2438   0.101   9.445   7.580
  204POPC   GL1 2439  -0.044   9.580   7.142
  204POPC   GL2 2440  -0.102   9.831   7.190
  204POPC   C1A 2441   0.217   9.346   6.829
  204POPC   D2A 2442   0.506   9.423   6.425
  204POPC   C3A 2443   0.898   9.406   6.099
  204POPC   C4A 2444   1.062   9.528   5.654
  204POPC   C1B 2445  -0.174   9.855   6.831
  204POPC   C2B 2446   0.003   9.766   6.456
  204POPC   C3B 2447   0.102   9.847   5.934
  204POPC   C4B 2448   0.086   9.775   5.490
  205POPC   NC3 2449  13.784  33.399   7.759
  205POPC   PO4 2450  13.907  33.749   7.612
  205POPC   GL1 2451  13.742  33.920   7.324
  205POPC   GL2 2452  14.012  33.984   7.207
  205POPC   C1A 2453  13.626  33.640   6.986
  205POPC   D2A 2454  13.417  33.323   6.666
  205POPC   C3A 2455  13.431  33.233   6.259
  205POPC   C4A 2456  13.176  32.909   5.981
  205POPC   C1B 2457  13.987  33.847   6.835
  205POPC   C2B 2458  13.876  33.686   6.545
  205POPC   C3B 2459  14.122  33.554   6.167
  205POPC   C4B 2460  13.955  33.397   5.792
  206POPC   NC3 2461  15.498  12.411   7.816
  206POPC   PO4 2462  15.324  12.555   7.480
  206POPC   GL1 2463  15.543  12.550   7.183
  206POPC   GL2 2464  15.670  12.794   7.094
  206POPC   C1A 2465  15.354  12.254   6.906
  206POPC   D2A 2466  15.333  12.072   6.465
  206POPC   C3A 2467  15.057  11.932   6.137
  206POPC   C4A 2468  15.264  11.921   5.674
  206POPC   C1B 2469  15.443  12.960   6.874
  206POPC   C2B 2470  15.439  13.215   6.512
  206POPC   C3B 2471  15.592  13.251   6.100
  206POPC   C4B 2472  15.735  13.361   5.650
  207POPC   NC3 2473   3.864   3.367   7.192
  207POPC   PO4 2474   4.097   3.062   7.425
  207POPC   GL1 2475   4.269   3.115   7.005
  207POPC   GL2 2476   4.062   2.906   7.049
  207POPC   C1A 2477   4.240   2.896   6.619
  207POPC   D2A 2478   4.178   2.643   6.242
  207POPC   C3A 2479   4.128   2.559   5.831
  207POPC   C4A 2480   4.348   2.563   5.437
  207POPC   C1B 2481   3.779   2.856   6.831
  207POPC   C2B 2482   3.698   2.868   6.494
  207POPC   C3B 2483   3.644   2.768   6.082
  207POPC   C4B 2484   3.677   2.543   5.603
  208POPC   NC3 2485   7.760   9.571   7.108
  208POPC   PO4 2486   7.429   9.790   7.049
  208POPC   GL1 2487   7.324   9.597   6.702
  208POPC   GL2 2488   7.603   9.446   6.686
  208POPC   C1A 2489   7.173   9.610   6.343
  208POPC   D2A 2490   7.033   9.552   5.909
  208POPC   C3A 2491   7.168   9.640   5.493
  208POPC   C4A 2492   7.352   9.902   5.142
  208POPC   C1B 2493   7.621   9.532   6.336
  208POPC   C2B 2494   7.517   9.459   5.940
  208POPC   C3B 2495   7.567   9.376   5.502
  208POPC   C4B 2496   7.586   9.470   5.032
  209POPC   NC3 2497   8.269  24.476   6.646
  209POPC   PO4 2498   8.133  24.713   6.919
  209POPC   GL1 2499   7.798  24.763   6.840
  209POPC   GL2 2500   7.560  25.012   6.845
  209POPC   C1A 2501   7.668  24.468   6.564
  209POPC   D2A 2502   7.548  24.036   6.355
  209POPC   C3A 2503   7.882  23.933   6.032
  209POPC   C4A 2504   7.914  23.754   5.589
  209POPC   C1B 2505   7.683  24.950   6.479
  209POPC   C2B 2506   7.636  24.805   6.175
  209POPC   C3B 2507   7.454  24.830   5.754
  209POPC   C4B 2508   7.395  25.122   5.411
  210POPC   NC3 2509   7.649  31.294   7.356
  210POPC   PO4 2510   7.344  31.011   7.301
  210POPC   GL1 2511   7.233  31.119   6.881
  210POPC   GL2 2512   7.248  31.374   6.819
  210POPC   C1A 2513   7.216  30.827   6.544
  210POPC   D2A 2514   7.200  30.662   6.044
  210POPC   C3A 2515   6.952  30.711   5.638
  210POPC   C4A 2516   7.169  30.650   5.211
  210POPC   C1B 2517   7.365  31.345   6.496
  210POPC   C2B 2518   7.272  31.201   6.069
  210POPC   C3B 2519   7.429  30.933   5.683
  210POPC   C4B 2520   7.479  30.491   5.563
  211POPC   NC3 2521  12.060  18.667   7.510
  211POPC   PO4 2522  11.904  18.645   7.143
  211POPC   GL1 2523  11.714  18.843   6.904
  211POPC   GL2 2524  11.930  18.963   6.741
  211POPC   C1A 2525  11.505  18.531   6.616
  211POPC   D2A 2526  11.043  18.403   6.458
  211POPC   C3A 2527  10.973  17.998   6.223
  211POPC   C4A 2528  10.796  18.002   5.821
  211POPC   C1B 2529  11.860  18.819   6.416
  211POPC   C2B 2530  11.696  18.532   6.116
  211POPC   C3B 2531  11.666  18.358   5.684
  211POPC   C4B 2532  11.558  18.072   5.240
  212POPC   NC3 2533  34.077  10.287   7.426
  212POPC   PO4 2534  33.752  10.120   7.295
  212POPC   GL1 2535  33.665  10.235   6.901
  212POPC   GL2 2536  33.578   9.997   6.770
  212POPC   C1A 2537  33.697  10.502   6.520
  212POPC   D2A 2538  33.479  10.317   6.059
  212POPC   C3A 2539  33.693  10.454   5.684
  212POPC   C4A 2540  34.006  10.601   5.291
  212POPC   C1B 2541  33.569  10.013   6.372
  212POPC   C2B 2542  33.667   9.903   5.967
  212POPC   C3B 2543  33.812   9.868   5.546
  212POPC   C4B 2544  33.928   9.591   5.197
  213POPC   NC3 2545   7.147  18.852   7.258
  213POPC   PO4 2546   6.782  18.770   7.346
  213POPC   GL1 2547   6.926  18.408   7.050
  213POPC   GL2 2548   6.696  18.426   7.005
  213POPC   C1A 2549   7.235  18.528   6.724
  213POPC   D2A 2550   7.305  18.609   6.265
  213POPC   C3A 2551   7.250  18.635   5.769
  213POPC   C4A 2552   7.147  18.490   5.310
  213POPC   C1B 2553   6.721  18.457   6.659
  213POPC   C2B 2554   6.790  18.454   6.256
  213POPC   C3B 2555   6.761  18.378   5.810
  213POPC   C4B 2556   6.787  18.081   5.496
  214POPC   NC3 2557   6.518  31.456   7.673
  214POPC   PO4 2558   6.221  31.266   7.554
  214POPC   GL1 2559   6.315  31.260   7.123
  214POPC   GL2 2560   6.531  31.330   7.223
  214POPC   C1A 2561   6.331  31.169   6.700
  214POPC   D2A 2562   6.342  31.195   6.147
  214POPC   C3A 2563   6.483  31.434   5.729
  214POPC   C4A 2564   6.388  31.825   5.454
  214POPC   C1B 2565   6.759  31.114   7.030
  214POPC   C2B 2566   6.881  31.270   6.646
  214POPC   C3B 2567   6.789  31.497   6.205
  214POPC   C4B 2568   6.853  31.768   5.779
  215POPC   NC3 2569   4.451  27.098   7.854
  215POPC   PO4 2570   4.622  26.841   7.665
  215POPC   GL1 2571   4.686  26.696   7.284
  215POPC   GL2 2572   4.661  27.009   7.234
  215POPC   C1A 2573   4.407  26.550   7.013
  215POPC   D2A 2574   4.540  26.337   6.603
  215POPC   C3A 2575   4.383  25.964   6.322
  215POPC   C4A 2576   4.066  25.685   6.028
  215POPC   C1B 2577   4.663  27.096   6.868
  215POPC   C2B 2578   4.768  27.276   6.488
  215POPC   C3B 2579   4.836  27.591   6.133
  215POPC   C4B 2580   4.566  27.702   5.716
  216POPC   NC3 2581   1.676  13.535   8.221
  216POPC   PO4 2582   1.390  13.313   7.956
  216POPC   GL1 2583   1.610  13.267   7.605
  216POPC   GL2 2584   1.900  13.229   7.755
  216POPC   C1A 2585   1.541  12.942   7.336
  216POPC   D2A 2586   1.355  12.696   6.951
  216POPC   C3A 2587   1.454  12.670   6.474
  216POPC   C4A 2588   1.215  12.595   5.978
  216POPC   C1B 2589   1.971  13.263   7.423
  216POPC   C2B 2590   1.926  13.300   7.042
  216POPC   C3B 2591   2.172  13.165   6.577
  216POPC   C4B 2592   2.525  13.041   6.248
  217POPC   NC3 2593   1.280  30.164   7.299
  217POPC   PO4 2594   0.903  30.139   7.440
  217POPC   GL1 2595   0.798  29.956   7.094
  217POPC   GL2 2596   1.062  29.787   7.041
  217POPC   C1A 2597   0.496  30.234   6.894
  217POPC   D2A 2598   0.225  30.342   6.537
  217POPC   C3A 2599   0.019  30.397   6.150
  217POPC   C4A 2600  -0.221  30.268   5.799
  217POPC   C1B 2601   1.189  30.009   6.790
  217POPC   C2B 2602   1.321  30.037   6.399
  217POPC   C3B 2603   1.310  30.075   5.943
  217POPC   C4B 2604   1.322  30.095   5.421
  218POPC   NC3 2605  10.254  18.340   7.659
  218POPC   PO4 2606   9.999  18.621   7.526
  218POPC   GL1 2607   9.705  18.491   7.206
  218POPC   GL2 2608   9.852  18.692   7.079
  218POPC   C1A 2609   9.771  18.156   6.850
  218POPC   D2A 2610  10.110  17.967   6.531
  218POPC   C3A 2611   9.775  18.017   6.265
  218POPC   C4A 2612   9.370  17.832   5.995
  218POPC   C1B 2613   9.877  18.590   6.770
  218POPC   C2B 2614   9.955  18.422   6.413
  218POPC   C3B 2615   9.911  18.464   5.902
  218POPC   C4B 2616   9.848  18.574   5.443
  219POPC   NC3 2617  19.798  21.914   7.542
  219POPC   PO4 2618  19.650  22.279   7.512
  219POPC   GL1 2619  19.599  22.130   7.082
  219POPC   GL2 2620  19.305  22.250   7.129
  219POPC   C1A 2621  19.591  22.271   6.665
  219POPC   D2A 2622  19.645  22.348   6.136
  219POPC   C3A 2623  19.661  22.019   5.815
  219POPC   C4A 2624  19.444  21.623   5.822
  219POPC   C1B 2625  19.185  22.292   6.786
  219POPC   C2B 2626  19.055  22.452   6.391
  219POPC   C3B 2627  19.124  22.668   5.917
  219POPC   C4B 2628  19.205  22.839   5.466
  220POPC   NC3 2629  12.255  35.235   7.259
  220POPC   PO4 2630  12.600  35.241   7.035
  220POPC   GL1 2631  12.528  35.423   6.709
  220POPC   GL2 2632  12.663  35.212   6.558
  220POPC   C1A 2633  12.074  35.432   6.762
  220POPC   D2A 2634  11.895  35.206   6.351
  220POPC   C3A 2635  11.776  35.127   5.885
  220POPC   C4A 2636  11.690  34.924   5.498
  220POPC   C1B 2637  12.719  35.264   6.211
  220POPC   C2B 2638  12.738  35.336   5.802
  220POPC   C3B 2639  12.578  35.291   5.375
  220POPC   C4B 2640  12.546  35.292   4.874
  221POPC   NC3 2641   1.364  12.347   7.685
  221POPC   PO4 2642   1.748  12.491   7.762
  221POPC   GL1 2643   2.032  12.573   7.436
  221POPC   GL2 2644   1.755  12.473   7.255
  221POPC   C1A 2645   2.156  12.872   7.192
  221POPC   D2A 2646   1.888  12.804   6.805
  221POPC   C3A 2647   1.973  12.620   6.406
  221POPC   C4A 2648   1.722  12.633   6.006
  221POPC   C1B 2649   1.692  12.113   7.215
  221POPC   C2B 2650   1.931  11.878   6.986
  221POPC   C3B 2651   1.947  11.932   6.505
  221POPC   C4B 2652   2.087  12.230   6.111
  222POPC   NC3 2653   6.588  16.227   7.460
  222POPC   PO4 2654   6.279  16.017   7.409
  222POPC   GL1 2655   6.447  15.779   7.091
  222POPC   GL2 2656   6.622  16.025   6.991
  222POPC   C1A 2657   6.220  15.750   6.750
  222POPC   D2A 2658   6.040  15.458   6.377
  222POPC   C3A 2659   6.129  15.255   5.972
  222POPC   C4A 2660   6.252  14.790   5.767
  222POPC   C1B 2661   6.566  15.970   6.635
  222POPC   C2B 2662   6.656  16.122   6.257
  222POPC   C3B 2663   6.628  16.046   5.777
  222POPC   C4B 2664   6.803  15.856   5.376
  223POPC   NC3 2665  30.253   0.414   7.800
  223POPC   PO4 2666  30.151   0.078   7.625
  223POPC   GL1 2667  30.012   0.023   7.196
  223POPC   GL2 2668  29.769   0.167   7.169
  223POPC   C1A 2669  30.300  -0.030   6.898
  223POPC   D2A 2670  30.439   0.075   6.442
  223POPC   C3A 2671  30.518  -0.090   5.933
  223POPC   C4A 2672  30.231  -0.225   5.532
  223POPC   C1B 2673  29.741   0.269   6.839
  223POPC   C2B 2674  29.718   0.332   6.421
  223POPC   C3B 2675  29.629   0.527   5.972
  223POPC   C4B 2676  29.568   0.608   5.520
  224POPC   NC3 2677   4.943  32.332   8.094
  224POPC   PO4 2678   5.169  32.149   7.839
  224POPC   GL1 2679   4.981  32.263   7.508
  224POPC   GL2 2680   5.087  32.548   7.490
  224POPC   C1A 2681   4.818  32.177   7.073
  224POPC   D2A 2682   4.568  31.910   6.793
  224POPC   C3A 2683   4.556  31.933   6.331
  224POPC   C4A 2684   4.460  32.063   5.856
  224POPC   C1B 2685   5.144  32.564   7.098
  224POPC   C2B 2686   5.108  32.539   6.714
  224POPC   C3B 2687   5.249  32.778   6.410
  224POPC   C4B 2688   5.126  32.729   5.970
  225POPC   NC3 2689   4.294  30.670   7.678
  225POPC   PO4 2690   4.148  30.360   7.757
  225POPC   GL1 2691   4.109  30.447   7.331
  225POPC   GL2 2692   4.168  30.144   7.311
  225POPC   C1A 2693   4.083  30.548   6.913
  225POPC   D2A 2694   4.087  30.698   6.396
  225POPC   C3A 2695   4.122  30.553   5.906
  225POPC   C4A 2696   4.161  30.441   5.443
  225POPC   C1B 2697   4.336  30.080   6.982
  225POPC   C2B 2698   4.453  30.175   6.605
  225POPC   C3B 2699   4.532  30.429   6.173
  225POPC   C4B 2700   4.658  30.494   5.730
  226POPC   NC3 2701  30.978   9.953   7.244
  226POPC   PO4 2702  30.746   9.659   7.127
  226POPC   GL1 2703  30.767   9.390   6.807
  226POPC   GL2 2704  30.989   9.625   6.687
  226POPC   C1A 2705  30.772   9.335   6.330
  226POPC   D2A 2706  30.639   9.166   5.852
  226POPC   C3A 2707  30.995   9.471   5.767
  226POPC   C4A 2708  31.343   9.768   5.764
  226POPC   C1B 2709  31.204   9.603   6.422
  226POPC   C2B 2710  31.475   9.931   6.286
  226POPC   C3B 2711  31.689  10.309   6.165
  226POPC   C4B 2712  31.607  10.704   5.921
  227POPC   NC3 2713   5.166  31.261   7.548
  227POPC   PO4 2714   4.984  30.867   7.511
  227POPC   GL1 2715   4.774  31.023   7.234
  227POPC   GL2 2716   4.720  31.296   7.271
  227POPC   C1A 2717   4.859  31.119   6.819
  227POPC   D2A 2718   5.033  31.124   6.320
  227POPC   C3A 2719   4.919  30.887   5.952
  227POPC   C4A 2720   5.104  30.680   5.565
  227POPC   C1B 2721   4.643  31.485   6.982
  227POPC   C2B 2722   4.506  31.471   6.575
  227POPC   C3B 2723   4.426  31.467   6.087
  227POPC   C4B 2724   4.355  31.508   5.600
  228POPC   NC3 2725  19.313  27.568   7.394
  228POPC   PO4 2726  19.263  27.914   7.594
  228POPC   GL1 2727  19.100  28.248   7.310
  228POPC   GL2 2728  19.305  28.138   7.195
  228POPC   C1A 2729  18.920  28.407   6.959
  228POPC   D2A 2730  18.630  28.863   6.962
  228POPC   C3A 2731  18.618  29.017   6.576
  228POPC   C4A 2732  18.253  29.063   6.241
  228POPC   C1B 2733  19.109  28.001   6.959
  228POPC   C2B 2734  18.816  28.042   6.651
  228POPC   C3B 2735  18.728  28.120   6.180
  228POPC   C4B 2736  18.821  27.916   5.804
  229POPC   NC3 2737   9.433  27.996   7.248
  229POPC   PO4 2738   9.641  28.243   6.988
  229POPC   GL1 2739   9.595  28.292   6.640
  229POPC   GL2 2740   9.466  28.559   6.622
  229POPC   C1A 2741   9.742  28.226   6.238
  229POPC   D2A 2742  10.127  28.111   5.865
  229POPC   C3A 2743  10.175  27.857   5.437
  229POPC   C4A 2744  10.135  27.726   4.945
  229POPC   C1B 2745   9.315  28.650   6.285
  229POPC   C2B 2746   9.111  28.706   5.959
  229POPC   C3B 2747   9.085  28.451   5.547
  229POPC   C4B 2748   9.338  28.189   5.206
  230POPC   NC3 2749  16.956  32.372   7.868
  230POPC   PO4 2750  17.194  32.432   7.543
  230POPC   GL1 2751  16.991  32.283   7.208
  230POPC   GL2 2752  17.143  32.468   7.002
  230POPC   C1A 2753  16.941  31.976   6.974
  230POPC   D2A 2754  16.570  31.813   6.745
  230POPC   C3A 2755  16.303  31.748   6.380
  230POPC   C4A 2756  16.065  31.796   5.986
  230POPC   C1B 2757  17.121  32.504   6.590
  230POPC   C2B 2758  17.052  32.460   6.185
  230POPC   C3B 2759  16.939  32.432   5.664
  230POPC   C4B 2760  16.947  32.484   5.195
  231POPC   NC3 2761  18.674   2.072   7.747
  231POPC   PO4 2762  18.315   1.843   7.691
  231POPC   GL1 2763  18.246   1.829   7.308
  231POPC   GL2 2764  18.114   1.634   7.261
  231POPC   C1A 2765  18.115   2.086   6.927
  231POPC   D2A 2766  17.779   2.300   6.619
  231POPC   C3A 2767  17.905   2.410   6.190
  231POPC   C4A 2768  17.955   2.294   5.792
  231POPC   C1B 2769  18.416   1.605   6.964
  231POPC   C2B 2770  18.644   1.467   6.606
  231POPC   C3B 2771  18.805   1.273   6.209
  231POPC   C4B 2772  19.002   1.373   5.710
  232POPC   NC3 2773  28.456   5.163   7.609
  232POPC   PO4 2774  28.152   5.402   7.747
  232POPC   GL1 2775  27.996   5.179   7.480
  232POPC   GL2 2776  27.715   5.212   7.615
  232POPC   C1A 2777  27.829   5.132   7.085
  232POPC   D2A 2778  27.708   4.759   6.718
  232POPC   C3A 2779  27.517   4.635   6.240
  232POPC   C4A 2780  27.444   4.363   5.868
  232POPC   C1B 2781  27.464   5.054   7.318
  232POPC   C2B 2782  27.319   5.025   6.952
  232POPC   C3B 2783  27.316   4.985   6.516
  232POPC   C4B 2784  27.268   5.125   6.057
  233POPC   NC3 2785  16.368  31.243   7.355
  233POPC   PO4 2786  15.958  31.343   7.467
  233POPC   GL1 2787  15.955  31.514   7.079
  233POPC   GL2 2788  16.093  31.334   6.922
  233POPC   C1A 2789  15.645  31.721   6.833
  233POPC   D2A 2790  15.336  32.072   6.800
  233POPC   C3A 2791  15.300  31.844   6.445
  233POPC   C4A 2792  15.430  31.563   6.102
  233POPC   C1B 2793  16.015  31.392   6.547
  233POPC   C2B 2794  15.925  31.286   6.145
  233POPC   C3B 2795  15.678  31.250   5.700
  233POPC   C4B 2796  15.680  31.394   5.241
  234POPC   NC3 2797  30.656  24.161   7.305
  234POPC   PO4 2798  30.453  24.465   7.377
  234POPC   GL1 2799  30.472  24.652   6.984
  234POPC   GL2 2800  30.639  24.408   6.899
  234POPC   C1A 2801  30.349  24.699   6.619
  234POPC   D2A 2802  30.306  24.703   6.122
  234POPC   C3A 2803  30.344  24.556   5.702
  234POPC   C4A 2804  30.525  24.560   5.278
  234POPC   C1B 2805  30.704  24.386   6.600
  234POPC   C2B 2806  30.792  24.421   6.191
  234POPC   C3B 2807  30.766  24.294   5.713
  234POPC   C4B 2808  31.058  24.209   5.302
  235POPC   NC3 2809  23.281  35.023   7.928
  235POPC   PO4 2810  23.416  35.156   7.543
  235POPC   GL1 2811  23.141  35.102   7.174
  235POPC   GL2 2812  23.289  34.833   7.223
  235POPC   C1A 2813  23.120  35.234   6.788
  235POPC   D2A 2814  23.213  35.344   6.344
  235POPC   C3A 2815  23.350  35.130   5.924
  235POPC   C4A 2816  23.535  34.667   5.819
  235POPC   C1B 2817  23.393  34.667   6.898
  235POPC   C2B 2818  23.464  34.450   6.569
  235POPC   C3B 2819  23.447  34.249   6.079
  235POPC   C4B 2820  23.410  34.183   5.590
  236POPC   NC3 2821  20.710   4.798   7.202
  236POPC   PO4 2822  20.326   4.924   7.158
  236POPC   GL1 2823  20.038   4.658   6.888
  236POPC   GL2 2824  20.302   4.546   6.808
  236POPC   C1A 2825  19.876   4.676   6.491
  236POPC   D2A 2826  19.848   5.046   6.141
  236POPC   C3A 2827  19.734   4.958   5.733
  236POPC   C4A 2828  19.525   4.977   5.263
  236POPC   C1B 2829  20.361   4.826   6.522
  236POPC   C2B 2830  20.396   5.091   6.162
  236POPC   C3B 2831  20.201   5.081   5.722
  236POPC   C4B 2832  20.041   5.439   5.408
  237POPC   NC3 2833  28.065  23.179   7.461
  237POPC   PO4 2834  28.008  22.816   7.432
  237POPC   GL1 2835  28.204  23.001   7.027
  237POPC   GL2 2836  28.151  22.747   6.886
  237POPC   C1A 2837  28.115  23.238   6.644
  237POPC   D2A 2838  28.137  23.180   6.147
  237POPC   C3A 2839  28.270  23.037   5.770
  237POPC   C4A 2840  28.253  22.782   5.311
  237POPC   C1B 2841  28.337  22.490   6.679
  237POPC   C2B 2842  28.368  22.474   6.274
  237POPC   C3B 2843  28.325  22.094   5.987
  237POPC   C4B 2844  28.271  21.949   5.560
  238POPC   NC3 2845  32.127  31.941   7.468
  238POPC   PO4 2846  32.412  31.924   7.752
  238POPC   GL1 2847  32.789  31.768   7.540
  238POPC   GL2 2848  32.674  32.044   7.420
  238POPC   C1A 2849  32.989  31.752   7.140
  238POPC   D2A 2850  33.046  31.757   6.673
  238POPC   C3A 2851  32.879  31.574   6.255
  238POPC   C4A 2852  32.568  31.252   6.041
  238POPC   C1B 2853  32.814  32.188   7.125
  238POPC   C2B 2854  33.141  32.268   6.869
  238POPC   C3B 2855  33.462  32.030   6.573
  238POPC   C4B 2856  33.822  31.894   6.281
  239POPC   NC3 2857  21.063   4.508   7.953
  239POPC   PO4 2858  21.003   4.842   7.683
  239POPC   GL1 2859  21.202   4.769   7.252
  239POPC   GL2 2860  21.221   5.056   7.241
  239POPC   C1A 2861  21.264   4.648   6.897
  239POPC   D2A 2862  21.157   4.405   6.474
  239POPC   C3A 2863  21.200   4.654   6.107
  239POPC   C4A 2864  21.465   4.865   5.791
  239POPC   C1B 2865  21.348   5.094   6.909
  239POPC   C2B 2866  21.450   4.945   6.530
  239POPC   C3B 2867  21.599   5.100   6.182
  239POPC   C4B 2868  22.058   5.210   5.985
  240POPC   NC3 2869  12.413   8.627   7.009
  240POPC   PO4 2870  12.312   9.041   7.015
  240POPC   GL1 2871  12.192   9.235   6.706
  240POPC   GL2 2872  12.036   9.440   6.896
  240POPC   C1A 2873  12.264   9.424   6.322
  240POPC   D2A 2874  12.579   9.442   5.961
  240POPC   C3A 2875  12.875   9.353   5.625
  240POPC   C4A 2876  13.267   8.990   5.653
  240POPC   C1B 2877  11.978   9.666   6.627
  240POPC   C2B 2878  11.744   9.967   6.583
  240POPC   C3B 2879  11.619  10.131   6.177
  240POPC   C4B 2880  11.602  10.149   5.629
  241POPC   NC3 2881  11.293   6.088   7.173
  241POPC   PO4 2882  11.356   5.708   7.241
  241POPC   GL1 2883  11.229   5.425   6.942
  241POPC   GL2 2884  11.532   5.457   6.833
  241POPC   C1A 2885  11.064   5.360   6.559
  241POPC   D2A 2886  10.947   5.426   6.086
  241POPC   C3A 2887  10.794   5.711   5.805
  241POPC   C4A 2888  10.286   5.840   5.879
  241POPC   C1B 2889  11.518   5.504   6.416
  241POPC   C2B 2890  11.426   5.478   6.035
  241POPC   C3B 2891  11.461   5.329   5.612
  241POPC   C4B 2892  11.530   5.400   5.131
  242POPC   NC3 2893  26.730  18.342   7.165
  242POPC   PO4 2894  27.000  18.665   7.201
  242POPC   GL1 2895  27.087  18.888   6.935
  242POPC   GL2 2896  27.355  18.994   6.993
  242POPC   C1A 2897  27.064  18.872   6.467
  242POPC   D2A 2898  27.165  18.855   5.951
  242POPC   C3A 2899  27.161  18.423   5.712
  242POPC   C4A 2900  27.033  17.998   5.667
  242POPC   C1B 2901  27.495  19.009   6.640
  242POPC   C2B 2902  27.531  19.093   6.249
  242POPC   C3B 2903  27.604  19.206   5.844
  242POPC   C4B 2904  27.446  19.352   5.390
  243POPC   NC3 2905  32.145  23.378   7.550
  243POPC   PO4 2906  32.047  23.744   7.725
  243POPC   GL1 2907  32.263  24.091   7.531
  243POPC   GL2 2908  32.057  24.296   7.582
  243POPC   C1A 2909  32.316  24.251   7.140
  243POPC   D2A 2910  32.190  24.240   6.625
  243POPC   C3A 2911  32.182  24.285   6.193
  243POPC   C4A 2912  32.387  24.407   5.784
  243POPC   C1B 2913  31.974  24.540   7.302
  243POPC   C2B 2914  32.106  24.653   6.880
  243POPC   C3B 2915  32.206  24.740   6.388
  243POPC   C4B 2916  32.161  24.807   5.891
  244POPC   NC3 2917  15.369  35.630   7.480
  244POPC   PO4 2918  15.652  35.350   7.354
  244POPC   GL1 2919  15.859  35.372   6.980
  244POPC   GL2 2920  15.624  35.519   6.932
  244POPC   C1A 2921  16.041  35.402   6.578
  244POPC   D2A 2922  16.076  35.444   6.077
  244POPC   C3A 2923  16.136  35.493   5.613
  244POPC   C4A 2924  16.008  35.738   5.224
  244POPC   C1B 2925  15.524  35.657   6.591
  244POPC   C2B 2926  15.417  35.707   6.179
  244POPC   C3B 2927  15.301  35.893   5.705
  244POPC   C4B 2928  15.219  35.810   5.232
  245POPC   NC3 2929  27.600  22.706   7.237
  245POPC   PO4 2930  27.493  22.364   7.434
  245POPC   GL1 2931  27.444  22.128   7.151
  245POPC   GL2 2932  27.129  22.048   7.121
  245POPC   C1A 2933  27.629  21.928   6.755
  245POPC   D2A 2934  27.672  21.872   6.290
  245POPC   C3A 2935  27.595  21.799   5.875
  245POPC   C4A 2936  27.399  21.858   5.403
  245POPC   C1B 2937  26.930  22.175   6.853
  245POPC   C2B 2938  26.891  22.159   6.423
  245POPC   C3B 2939  26.866  22.104   5.908
  245POPC   C4B 2940  26.696  22.006   5.386
  246POPC   NC3 2941  20.223  10.476   7.330
  246POPC   PO4 2942  19.927  10.665   7.563
  246POPC   GL1 2943  19.702  10.651   7.329
  246POPC   GL2 2944  19.428  10.587   7.342
  246POPC   C1A 2945  19.752  10.530   6.864
  246POPC   D2A 2946  19.467  10.415   6.463
  246POPC   C3A 2947  19.287  10.598   6.078
  246POPC   C4A 2948  19.426  10.478   5.615
  246POPC   C1B 2949  19.345  10.736   7.006
  246POPC   C2B 2950  19.149  10.912   6.672
  246POPC   C3B 2951  18.902  10.895   6.217
  246POPC   C4B 2952  18.775  11.233   5.842
  247POPC   NC3 2953   4.236  15.730   8.030
  247POPC   PO4 2954   3.919  15.661   7.882
  247POPC   GL1 2955   3.884  15.450   7.484
  247POPC   GL2 2956   3.698  15.571   7.352
  247POPC   C1A 2957   4.026  15.027   7.316
  247POPC   D2A 2958   4.085  14.600   7.127
  247POPC   C3A 2959   4.305  14.199   6.998
  247POPC   C4A 2960   4.382  13.804   6.860
  247POPC   C1B 2961   3.795  15.384   7.079
  247POPC   C2B 2962   3.878  15.075   6.813
  247POPC   C3B 2963   4.069  14.676   6.620
  247POPC   C4B 2964   4.194  14.413   6.234
  248POPC   NC3 2965  27.033   2.393   7.633
  248POPC   PO4 2966  26.797   2.383   7.355
  248POPC   GL1 2967  26.973   2.296   7.106
  248POPC   GL2 2968  26.929   1.968   7.237
  248POPC   C1A 2969  26.903   2.416   6.695
  248POPC   D2A 2970  26.947   2.692   6.304
  248POPC   C3A 2971  26.785   2.916   5.940
  248POPC   C4A 2972  26.791   3.044   5.471
  248POPC   C1B 2973  26.842   1.937   6.934
  248POPC   C2B 2974  26.705   1.825   6.558
  248POPC   C3B 2975  26.623   1.804   6.119
  248POPC   C4B 2976  26.711   1.842   5.619
  249POPC   NC3 2977   7.767  31.744   7.842
  249POPC   PO4 2978   7.403  31.566   7.698
  249POPC   GL1 2979   7.483  31.891   7.324
  249POPC   GL2 2980   7.184  31.848   7.338
  249POPC   C1A 2981   7.479  31.794   6.970
  249POPC   D2A 2982   7.701  31.590   6.538
  249POPC   C3A 2983   8.037  31.767   6.290
  249POPC   C4A 2984   8.089  31.700   5.792
  249POPC   C1B 2985   7.016  31.705   7.013
  249POPC   C2B 2986   7.067  31.700   6.580
  249POPC   C3B 2987   7.275  31.668   6.100
  249POPC   C4B 2988   7.695  31.437   5.933
  250POPC   NC3 2989  27.346  12.957   8.380
  250POPC   PO4 2990  27.347  12.844   7.972
  250POPC   GL1 2991  27.419  12.909   7.519
  250POPC   GL2 2992  27.172  12.922   7.410
  250POPC   C1A 2993  27.573  13.026   7.127
  250POPC   D2A 2994  27.540  13.054   6.666
  250POPC   C3A 2995  27.543  13.022   6.165
  250POPC   C4A 2996  27.508  13.285   5.752
  250POPC   C1B 2997  27.056  13.064   7.052
  250POPC   C2B 2998  26.949  13.150   6.682
  250POPC   C3B 2999  27.092  13.187   6.193
  250POPC   C4B 3000  26.974  13.098   5.721
  251POPC   NC3 3001  24.477  20.086   8.279
  251POPC   PO4 3002  24.096  20.226   8.195
  251POPC   GL1 3003  24.224  20.439   7.821
  251POPC   GL2 3004  24.077  20.168   7.698
  251POPC   C1A 3005  24.319  20.326   7.388
  251POPC   D2A 3006  24.618  20.354   6.930
  251POPC   C3A 3007  24.752  20.455   6.535
  251POPC   C4A 3008  25.078  20.455   6.182
  251POPC   C1B 3009  23.896  20.175   7.374
  251POPC   C2B 3010  23.713  20.017   7.065
  251POPC   C3B 3011  23.596  19.956   6.646
  251POPC   C4B 3012  23.322  19.925   6.197
  252POPC   NC3 3013   5.511   4.693   7.424
  252POPC   PO4 3014   5.145   4.698   7.285
  252POPC   GL1 3015   5.151   4.858   6.880
  252POPC   GL2 3016   5.097   4.591   6.796
  252POPC   C1A 3017   5.475   4.952   6.569
  252POPC   D2A 3018   5.815   4.983   6.218
  252POPC   C3A 3019   5.946   5.309   5.862
  252POPC   C4A 3020   5.794   5.641   5.521
  252POPC   C1B 3021   5.130   4.564   6.451
  252POPC   C2B 3022   5.160   4.663   6.068
  252POPC   C3B 3023   5.336   4.752   5.615
  252POPC   C4B 3024   5.273   4.540   5.180
  253POPC   NC3 3025  29.196  28.039   7.512
  253POPC   PO4 3026  28.956  28.346   7.404
  253POPC   GL1 3027  28.828  28.518   6.930
  253POPC   GL2 3028  29.025  28.660   7.108
  253POPC   C1A 3029  29.026  28.574   6.469
  253POPC   D2A 3030  29.355  28.469   6.086
  253POPC   C3A 3031  29.346  28.595   5.650
  253POPC   C4A 3032  29.537  28.626   5.215
  253POPC   C1B 3033  29.291  28.866   6.988
  253POPC   C2B 3034  29.408  29.015   6.613
  253POPC   C3B 3035  29.351  29.062   6.162
  253POPC   C4B 3036  29.327  29.189   5.682
  254POPC   NC3 3037  31.473  21.751   7.271
  254POPC   PO4 3038  31.560  21.366   7.224
  254POPC   GL1 3039  31.839  21.196   6.915
  254POPC   GL2 3040  31.597  21.197   6.701
  254POPC   C1A 3041  31.984  20.919   6.602
  254POPC   D2A 3042  31.998  20.755   6.195
  254POPC   C3A 3043  32.112  20.670   5.681
  254POPC   C4A 3044  31.817  20.321   5.579
  254POPC   C1B 3045  31.464  21.334   6.418
  254POPC   C2B 3046  31.268  21.447   6.025
  254POPC   C3B 3047  31.309  21.446   5.577
  254POPC   C4B 3048  31.657  21.528   5.190
  255POPC   NC3 3049  12.402  15.937   7.049
  255POPC   PO4 3050  12.736  15.732   7.195
  255POPC   GL1 3051  12.819  15.360   6.915
  255POPC   GL2 3052  12.850  15.647   6.820
  255POPC   C1A 3053  12.607  15.281   6.539
  255POPC   D2A 3054  12.359  15.249   6.115
  255POPC   C3A 3055  12.345  14.872   5.764
  255POPC   C4A 3056  12.149  14.646   5.429
  255POPC   C1B 3057  12.978  15.678   6.434
  255POPC   C2B 3058  12.981  15.664   6.042
  255POPC   C3B 3059  12.888  15.932   5.602
  255POPC   C4B 3060  12.834  16.271   5.183
  256POPC   NC3 3061  15.925  16.703   7.990
  256POPC   PO4 3062  16.167  16.476   7.757
  256POPC   GL1 3063  16.196  16.265   7.353
  256POPC   GL2 3064  16.361  16.406   7.204
  256POPC   C1A 3065  15.928  16.068   7.022
  256POPC   D2A 3066  15.817  16.041   6.555
  256POPC   C3A 3067  15.884  16.329   6.209
  256POPC   C4A 3068  15.813  16.466   5.804
  256POPC   C1B 3069  16.253  16.519   6.859
  256POPC   C2B 3070  16.225  16.580   6.457
  256POPC   C3B 3071  16.287  16.724   6.082
  256POPC   C4B 3072  16.235  16.676   5.584
  257POPC   NC3 3073  14.628  27.458   7.292
  257POPC   PO4 3074  15.025  27.493   7.423
  257POPC   GL1 3075  15.100  27.792   7.161
  257POPC   GL2 3076  14.802  27.848   7.075
  257POPC   C1A 3077  15.396  27.719   6.820
  257POPC   D2A 3078  15.491  27.606   6.361
  257POPC   C3A 3079  15.627  27.585   5.875
  257POPC   C4A 3080  15.662  27.755   5.396
  257POPC   C1B 3081  14.918  27.908   6.696
  257POPC   C2B 3082  14.981  27.916   6.312
  257POPC   C3B 3083  15.150  27.783   5.898
  257POPC   C4B 3084  15.187  27.740   5.426
  258POPC   NC3 3085   5.536   2.735   7.853
  258POPC   PO4 3086   5.878   2.614   7.808
  258POPC   GL1 3087   5.811   2.723   7.374
  258POPC   GL2 3088   6.110   2.631   7.384
  258POPC   C1A 3089   5.623   2.693   6.994
  258POPC   D2A 3090   5.676   2.675   6.495
  258POPC   C3A 3091   5.701   2.648   6.007
  258POPC   C4A 3092   5.717   2.709   5.524
  258POPC   C1B 3093   6.413   2.798   7.286
  258POPC   C2B 3094   6.605   2.982   6.990
  258POPC   C3B 3095   6.663   3.025   6.516
  258POPC   C4B 3096   6.475   3.039   6.039
  259POPC   NC3 3097  32.470  31.592   8.179
  259POPC   PO4 3098  32.639  31.418   7.841
  259POPC   GL1 3099  32.510  31.486   7.465
  259POPC   GL2 3100  32.268  31.320   7.378
  259POPC   C1A 3101  32.458  31.731   7.096
  259POPC   D2A 3102  32.668  32.021   6.683
  259POPC   C3A 3103  32.596  32.248   6.175
  259POPC   C4A 3104  32.279  32.076   5.814
  259POPC   C1B 3105  32.361  31.051   7.151
  259POPC   C2B 3106  32.521  30.910   6.762
  259POPC   C3B 3107  32.682  30.865   6.286
  259POPC   C4B 3108  32.914  30.747   5.811
  260POPC   NC3 3109   7.119  19.160   7.883
  260POPC   PO4 3110   6.987  19.218   7.516
  260POPC   GL1 3111   6.973  19.607   7.194
  260POPC   GL2 3112   6.780  19.383   7.049
  260POPC   C1A 3113   6.919  19.970   6.959
  260POPC   D2A 3114   6.780  20.332   6.673
  260POPC   C3A 3115   6.638  20.239   6.263
  260POPC   C4A 3116   6.596  19.830   5.940
  260POPC   C1B 3117   6.740  19.476   6.692
  260POPC   C2B 3118   6.564  19.430   6.349
  260POPC   C3B 3119   6.359  19.398   5.932
  260POPC   C4B 3120   6.177  19.556   5.500
  261POPC   NC3 3121  15.524  33.932   7.688
  261POPC   PO4 3122  15.687  34.098   7.373
  261POPC   GL1 3123  15.494  34.205   6.963
  261POPC   GL2 3124  15.761  34.528   6.998
  261POPC   C1A 3125  15.110  34.059   7.009
  261POPC   D2A 3126  14.942  33.597   6.987
  261POPC   C3A 3127  14.803  33.299   6.668
  261POPC   C4A 3128  14.943  33.195   6.242
  261POPC   C1B 3129  15.758  34.622   6.616
  261POPC   C2B 3130  15.727  34.644   6.215
  261POPC   C3B 3131  15.561  34.560   5.756
  261POPC   C4B 3132  15.359  34.602   5.330
  262POPC   NC3 3133  27.056  17.451   7.229
  262POPC   PO4 3134  26.831  17.798   7.320
  262POPC   GL1 3135  26.557  17.690   6.995
  262POPC   GL2 3136  26.704  17.505   6.914
  262POPC   C1A 3137  26.553  18.028   6.718
  262POPC   D2A 3138  26.557  18.112   6.246
  262POPC   C3A 3139  26.215  18.049   5.931
  262POPC   C4A 3140  26.306  17.940   5.436
  262POPC   C1B 3141  26.716  17.585   6.561
  262POPC   C2B 3142  26.720  17.444   6.186
  262POPC   C3B 3143  26.599  17.702   5.795
  262POPC   C4B 3144  26.757  17.793   5.317
  263POPC   NC3 3145  16.925  14.508   6.893
  263POPC   PO4 3146  16.912  14.912   6.923
  263POPC   GL1 3147  16.773  15.125   6.537
  263POPC   GL2 3148  17.060  15.256   6.552
  263POPC   C1A 3149  16.743  15.270   6.139
  263POPC   D2A 3150  16.973  15.570   5.780
  263POPC   C3A 3151  17.149  15.537   5.406
  263POPC   C4A 3152  17.594  15.570   5.068
  263POPC   C1B 3153  17.174  15.305   6.199
  263POPC   C2B 3154  17.472  15.493   5.932
  263POPC   C3B 3155  17.768  15.507   5.534
  263POPC   C4B 3156  18.066  15.386   5.158
  264POPC   NC3 3157  31.764  13.742   7.314
  264POPC   PO4 3158  31.935  13.458   7.536
  264POPC   GL1 3159  31.949  13.307   7.142
  264POPC   GL2 3160  31.727  13.130   7.216
  264POPC   C1A 3161  32.212  13.182   6.782
  264POPC   D2A 3162  32.612  12.887   6.718
  264POPC   C3A 3163  32.748  12.942   6.282
  264POPC   C4A 3164  32.725  12.525   5.958
  264POPC   C1B 3165  31.714  12.967   6.885
  264POPC   C2B 3166  31.542  12.628   6.681
  264POPC   C3B 3167  31.186  12.563   6.428
  264POPC   C4B 3168  30.896  12.295   6.117
  265POPC   NC3 3169  16.409  25.708   7.635
  265POPC   PO4 3170  16.637  25.400   7.594
  265POPC   GL1 3171  16.505  25.271   7.268
  265POPC   GL2 3172  16.389  24.993   7.311
  265POPC   C1A 3173  16.663  25.345   6.847
  265POPC   D2A 3174  16.712  25.418   6.402
  265POPC   C3A 3175  16.580  25.312   5.953
  265POPC   C4A 3176  16.932  25.449   5.623
  265POPC   C1B 3177  16.307  24.994   6.923
  265POPC   C2B 3178  16.372  24.930   6.554
  265POPC   C3B 3179  16.395  24.842   6.122
  265POPC   C4B 3180  16.297  24.727   5.629
  266POPC   NC3 3181  19.163  10.288   7.815
  266POPC   PO4 3182  19.486  10.034   7.777
  266POPC   GL1 3183  19.403   9.790   7.427
  266POPC   GL2 3184  19.761   9.774   7.415
  266POPC   C1A 3185  19.493   9.518   7.032
  266POPC   D2A 3186  19.467   9.055   7.023
  266POPC   C3A 3187  19.347   8.786   6.622
  266POPC   C4A 3188  19.115   8.415   6.365
  266POPC   C1B 3189  19.883   9.787   7.067
  266POPC   C2B 3190  19.855   9.597   6.687
  266POPC   C3B 3191  19.540   9.605   6.295
  266POPC   C4B 3192  19.288   9.785   5.921
  267POPC   NC3 3193  33.785   4.299   7.484
  267POPC   PO4 3194  34.003   4.642   7.555
  267POPC   GL1 3195  34.208   4.825   7.174
  267POPC   GL2 3196  34.046   4.623   7.032
  267POPC   C1A 3197  34.614   5.024   7.023
  267POPC   D2A 3198  34.606   5.273   6.620
  267POPC   C3A 3199  34.489   5.272   6.169
  267POPC   C4A 3200  34.516   5.165   5.684
  267POPC   C1B 3201  33.908   4.793   6.691
  267POPC   C2B 3202  33.719   4.882   6.373
  267POPC   C3B 3203  33.780   4.958   5.838
  267POPC   C4B 3204  33.848   5.105   5.301
  268POPC   NC3 3205   4.865   1.381   7.264
  268POPC   PO4 3206   5.219   1.248   7.400
  268POPC   GL1 3207   5.338   1.277   7.060
  268POPC   GL2 3208   5.153   1.434   6.889
  268POPC   C1A 3209   5.716   1.207   6.885
  268POPC   D2A 3210   6.065   0.981   6.917
  268POPC   C3A 3211   6.463   0.890   6.695
  268POPC   C4A 3212   6.608   1.170   6.239
  268POPC   C1B 3213   5.392   1.356   6.616
  268POPC   C2B 3214   5.612   1.273   6.320
  268POPC   C3B 3215   5.850   0.979   5.933
  268POPC   C4B 3216   6.097   0.815   5.524
  269POPC   NC3 3217  13.494  21.322   7.217
  269POPC   PO4 3218  13.851  21.368   7.436
  269POPC   GL1 3219  14.163  21.493   7.230
  269POPC   GL2 3220  13.983  21.520   6.992
  269POPC   C1A 3221  14.543  21.200   7.063
  269POPC   D2A 3222  14.866  20.872   6.787
  269POPC   C3A 3223  15.049  20.687   6.470
  269POPC   C4A 3224  15.316  20.719   6.084
  269POPC   C1B 3225  14.081  21.356   6.691
  269POPC   C2B 3226  14.260  21.407   6.328
  269POPC   C3B 3227  14.571  21.384   6.031
  269POPC   C4B 3228  14.698  21.202   5.621
  270POPC   NC3 3229  33.088  20.334   8.189
  270POPC   PO4 3230  32.928  20.477   7.873
  270POPC   GL1 3231  33.111  20.392   7.435
  270POPC   GL2 3232  33.276  20.311   7.519
  270POPC   C1A 3233  33.049  20.578   7.031
  270POPC   D2A 3234  32.865  20.417   6.581
  270POPC   C3A 3235  33.135  20.471   6.161
  270POPC   C4A 3236  33.272  20.410   5.672
  270POPC   C1B 3237  33.565  20.230   7.264
  270POPC   C2B 3238  33.804  20.147   6.957
  270POPC   C3B 3239  34.071  20.236   6.509
  270POPC   C4B 3240  34.084  20.235   6.002
  271POPC   NC3 3241  34.512   4.734   7.533
  271POPC   PO4 3242  34.717   4.411   7.480
  271POPC   GL1 3243  34.909   4.192   7.068
  271POPC   GL2 3244  34.614   4.042   7.061
  271POPC   C1A 3245  35.027   4.439   6.722
  271POPC   D2A 3246  35.180   4.579   6.290
  271POPC   C3A 3247  35.593   4.512   6.017
  271POPC   C4A 3248  35.821   4.311   5.623
  271POPC   C1B 3249  34.498   4.152   6.738
  271POPC   C2B 3250  34.429   4.286   6.376
  271POPC   C3B 3251  34.433   4.380   5.893
  271POPC   C4B 3252  34.461   4.409   5.413
  272POPC   NC3 3253   9.669  27.413   7.392
  272POPC   PO4 3254   9.405  27.523   7.120
  272POPC   GL1 3255   9.375  27.254   6.709
  272POPC   GL2 3256   9.530  27.499   6.626
  272POPC   C1A 3257   9.314  26.824   6.536
  272POPC   D2A 3258   8.983  26.519   6.377
  272POPC   C3A 3259   8.693  26.742   6.103
  272POPC   C4A 3260   8.910  26.829   5.694
  272POPC   C1B 3261   9.364  27.469   6.258
  272POPC   C2B 3262   9.273  27.531   5.875
  272POPC   C3B 3263   9.195  27.701   5.425
  272POPC   C4B 3264   8.974  27.619   4.963
  273POPC   NC3 3265  15.320  34.837   7.688
  273POPC   PO4 3266  14.955  34.815   7.456
  273POPC   GL1 3267  14.958  34.770   7.056
  273POPC   GL2 3268  14.907  35.019   6.888
  273POPC   C1A 3269  15.106  34.467   6.745
  273POPC   D2A 3270  15.373  34.136   6.548
  273POPC   C3A 3271  15.443  34.200   6.091
  273POPC   C4A 3272  15.593  34.089   5.647
  273POPC   C1B 3273  15.055  34.924   6.553
  273POPC   C2B 3274  15.166  34.759   6.183
  273POPC   C3B 3275  15.035  34.479   5.752
  273POPC   C4B 3276  15.030  34.013   5.635
  274POPC   NC3 3277  12.919  23.906   7.029
  274POPC   PO4 3278  12.862  24.344   7.100
  274POPC   GL1 3279  12.740  24.446   6.659
  274POPC   GL2 3280  12.655  24.173   6.719
  274POPC   C1A 3281  13.034  24.634   6.403
  274POPC   D2A 3282  13.093  25.115   6.113
  274POPC   C3A 3283  13.328  24.961   5.745
  274POPC   C4A 3284  13.676  24.786   5.481
  274POPC   C1B 3285  12.655  23.836   6.455
  274POPC   C2B 3286  12.774  23.609   6.130
  274POPC   C3B 3287  12.782  23.553   5.655
  274POPC   C4B 3288  12.805  23.295   5.159
  275POPC   NC3 3289  15.441  31.385   7.651
  275POPC   PO4 3290  15.338  31.730   7.617
  275POPC   GL1 3291  15.443  31.646   7.215
  275POPC   GL2 3292  15.515  31.319   7.225
  275POPC   C1A 3293  15.193  31.513   6.935
  275POPC   D2A 3294  14.836  31.284   6.592
  275POPC   C3A 3295  14.881  31.201   6.153
  275POPC   C4A 3296  15.156  31.278   5.748
  275POPC   C1B 3297  15.659  31.198   6.938
  275POPC   C2B 3298  15.530  31.188   6.543
  275POPC   C3B 3299  15.367  31.019   6.156
  275POPC   C4B 3300  15.121  30.828   5.776
  276POPC   NC3 3301  24.645  23.411   7.601
  276POPC   PO4 3302  24.785  23.766   7.556
  276POPC   GL1 3303  24.586  23.735   7.074
  276POPC   GL2 3304  24.821  23.859   7.049
  276POPC   C1A 3305  24.364  23.703   6.702
  276POPC   D2A 3306  24.326  23.567   6.217
  276POPC   C3A 3307  24.406  23.457   5.773
  276POPC   C4A 3308  24.528  23.043   5.534
  276POPC   C1B 3309  24.968  23.866   6.723
  276POPC   C2B 3310  25.086  23.811   6.343
  276POPC   C3B 3311  25.181  23.688   5.881
  276POPC   C4B 3312  25.328  23.551   5.404
  277POPC   NC3 3313  23.823  29.749   6.981
  277POPC   PO4 3314  23.693  30.116   7.137
  277POPC   GL1 3315  23.551  30.372   6.874
  277POPC   GL2 3316  23.598  30.610   6.878
  277POPC   C1A 3317  23.351  30.558   6.426
  277POPC   D2A 3318  22.997  30.834   6.134
  277POPC   C3A 3319  22.759  30.804   5.800
  277POPC   C4A 3320  22.332  31.032   5.621
  277POPC   C1B 3321  23.792  30.736   6.545
  277POPC   C2B 3322  23.706  30.684   6.110
  277POPC   C3B 3323  23.394  30.667   5.737
  277POPC   C4B 3324  23.030  30.801   5.408
  278POPC   NC3 3325   3.551  16.718   7.566
  278POPC   PO4 3326   3.923  16.660   7.602
  278POPC   GL1 3327   4.161  16.760   7.255
  278POPC   GL2 3328   4.105  16.962   7.129
  278POPC   C1A 3329   4.231  16.521   6.826
  278POPC   D2A 3330   4.313  16.348   6.385
  278POPC   C3A 3331   4.567  16.291   5.959
  278POPC   C4A 3332   4.602  15.969   5.588
  278POPC   C1B 3333   4.167  17.030   6.763
  278POPC   C2B 3334   4.199  16.846   6.406
  278POPC   C3B 3335   4.231  16.740   5.943
  278POPC   C4B 3336   4.128  16.398   5.517
  279POPC   NC3 3337   9.407   5.542   7.300
  279POPC   PO4 3338   9.379   5.893   7.064
  279POPC   GL1 3339   9.368   5.893   6.606
  279POPC   GL2 3340   9.021   5.954   6.711
  279POPC   C1A 3341   9.349   5.710   6.265
  279POPC   D2A 3342   9.457   5.644   5.804
  279POPC   C3A 3343   9.635   5.198   5.776
  279POPC   C4A 3344   9.860   5.071   5.363
  279POPC   C1B 3345   8.913   5.895   6.357
  279POPC   C2B 3346   8.858   5.896   5.938
  279POPC   C3B 3347   8.995   6.277   5.626
  279POPC   C4B 3348   9.283   6.421   5.230
  280POPC   NC3 3349  27.486   6.437   7.363
  280POPC   PO4 3350  27.757   6.230   7.487
  280POPC   GL1 3351  28.036   6.122   7.150
  280POPC   GL2 3352  27.819   5.956   7.178
  280POPC   C1A 3353  28.212   6.112   6.787
  280POPC   D2A 3354  28.294   5.970   6.348
  280POPC   C3A 3355  28.251   5.900   5.877
  280POPC   C4A 3356  28.468   5.925   5.500
  280POPC   C1B 3357  27.798   6.008   6.797
  280POPC   C2B 3358  27.766   6.059   6.382
  280POPC   C3B 3359  27.521   6.060   5.963
  280POPC   C4B 3360  27.277   6.170   5.538
  281POPC   NC3 3361   3.802  16.342   7.253
  281POPC   PO4 3362   3.409  16.297   7.365
  281POPC   GL1 3363   3.553  15.907   7.058
  281POPC   GL2 3364   3.512  16.114   6.869
  281POPC   C1A 3365   3.462  15.599   6.809
  281POPC   D2A 3366   3.593  15.244   6.476
  281POPC   C3A 3367   3.677  15.149   6.041
  281POPC   C4A 3368   4.025  15.030   5.745
  281POPC   C1B 3369   3.396  16.114   6.543
  281POPC   C2B 3370   3.299  16.097   6.157
  281POPC   C3B 3371   3.080  16.093   5.699
  281POPC   C4B 3372   3.102  16.268   5.240
  282POPC   NC3 3373  13.324   4.903   7.643
  282POPC   PO4 3374  12.981   4.949   7.541
  282POPC   GL1 3375  12.973   5.077   7.204
  282POPC   GL2 3376  12.993   5.410   7.148
  282POPC   C1A 3377  13.200   4.925   6.924
  282POPC   D2A 3378  13.520   4.802   6.561
  282POPC   C3A 3379  13.569   4.898   6.074
  282POPC   C4A 3380  13.757   4.907   5.642
  282POPC   C1B 3381  12.817   5.526   6.814
  282POPC   C2B 3382  12.887   5.489   6.382
  282POPC   C3B 3383  13.105   5.298   6.029
  282POPC   C4B 3384  13.365   5.330   5.656
  283POPC   NC3 3385  32.795  22.852   7.726
  283POPC   PO4 3386  32.516  23.099   7.692
  283POPC   GL1 3387  32.513  23.095   7.329
  283POPC   GL2 3388  32.770  23.225   7.220
  283POPC   C1A 3389  32.265  23.117   6.937
  283POPC   D2A 3390  32.036  23.094   6.509
  283POPC   C3A 3391  32.261  23.147   6.074
  283POPC   C4A 3392  32.118  23.161   5.604
  283POPC   C1B 3393  32.712  23.193   6.832
  283POPC   C2B 3394  32.542  23.025   6.447
  283POPC   C3B 3395  32.702  22.750   6.083
  283POPC   C4B 3396  32.412  22.524   5.807
  284POPC   NC3 3397  17.377  20.150   8.287
  284POPC   PO4 3398  17.253  20.154   7.900
  284POPC   GL1 3399  17.388  20.281   7.451
  284POPC   GL2 3400  17.581  20.063   7.520
  284POPC   C1A 3401  17.386  20.658   7.221
  284POPC   D2A 3402  17.440  20.817   6.739
  284POPC   C3A 3403  17.785  20.810   6.434
  284POPC   C4A 3404  17.758  20.856   5.933
  284POPC   C1B 3405  17.917  19.862   7.433
  284POPC   C2B 3406  17.998  19.770   7.064
  284POPC   C3B 3407  17.961  19.659   6.636
  284POPC   C4B 3408  17.902  19.953   6.255
  285POPC   NC3 3409  21.696  35.302   7.733
  285POPC   PO4 3410  21.626  34.917   7.631
  285POPC   GL1 3411  21.751  34.917   7.201
  285POPC   GL2 3412  21.774  35.212   7.270
  285POPC   C1A 3413  21.806  34.814   6.740
  285POPC   D2A 3414  21.822  34.826   6.287
  285POPC   C3A 3415  21.929  35.005   5.865
  285POPC   C4A 3416  22.296  35.279   5.660
  285POPC   C1B 3417  21.692  35.308   6.950
  285POPC   C2B 3418  21.587  35.242   6.554
  285POPC   C3B 3419  21.424  35.232   6.101
  285POPC   C4B 3420  21.390  35.377   5.644
  286POPC   NC3 3421  35.871  27.745   7.211
  286POPC   PO4 3422  35.902  28.121   7.058
  286POPC   GL1 3423  35.818  28.245   6.628
  286POPC   GL2 3424  36.026  28.211   6.546
  286POPC   C1A 3425  35.636  28.578   6.487
  286POPC   D2A 3426  35.281  28.557   6.120
  286POPC   C3A 3427  35.345  28.950   5.868
  286POPC   C4A 3428  35.343  29.334   5.603
  286POPC   C1B 3429  36.075  28.063   6.239
  286POPC   C2B 3430  36.066  27.888   5.890
  286POPC   C3B 3431  35.994  27.520   5.604
  286POPC   C4B 3432  35.780  27.130   5.660
  287POPC   NC3 3433   7.723  17.232   7.385
  287POPC   PO4 3434   7.469  17.508   7.272
  287POPC   GL1 3435   7.522  17.816   7.078
  287POPC   GL2 3436   7.682  18.056   7.088
  287POPC   C1A 3437   7.601  17.866   6.570
  287POPC   D2A 3438   7.650  17.990   6.047
  287POPC   C3A 3439   7.764  17.908   5.604
  287POPC   C4A 3440   7.881  17.603   5.262
  287POPC   C1B 3441   7.610  18.289   6.815
  287POPC   C2B 3442   7.725  18.352   6.436
  287POPC   C3B 3443   7.699  18.498   5.956
  287POPC   C4B 3444   7.644  18.480   5.433
  288POPC   NC3 3445  35.055  34.222   7.537
  288POPC   PO4 3446  34.969  34.593   7.488
  288POPC   GL1 3447  34.886  34.603   7.115
  288POPC   GL2 3448  34.924  34.842   6.983
  288POPC   C1A 3449  34.923  34.353   6.741
  288POPC   D2A 3450  35.014  34.389   6.284
  288POPC   C3A 3451  35.101  34.459   5.814
  288POPC   C4A 3452  35.258  34.644   5.429
  288POPC   C1B 3453  35.000  34.806   6.607
  288POPC   C2B 3454  35.281  34.924   6.311
  288POPC   C3B 3455  35.551  34.592   6.146
  288POPC   C4B 3456  35.950  34.509   5.901
  289POPC   NC3 3457   9.033  12.538   7.236
  289POPC   PO4 3458   8.668  12.704   7.286
  289POPC   GL1 3459   8.823  12.846   6.950
  289POPC   GL2 3460   8.565  12.705   6.821
  289POPC   C1A 3461   8.807  13.149   6.589
  289POPC   D2A 3462   8.755  13.567   6.332
  289POPC   C3A 3463   8.837  13.811   5.929
  289POPC   C4A 3464   8.666  13.949   5.511
  289POPC   C1B 3465   8.495  12.756   6.442
  289POPC   C2B 3466   8.506  12.928   6.042
  289POPC   C3B 3467   8.720  12.834   5.653
  289POPC   C4B 3468   9.015  13.165   5.569
  290POPC   NC3 3469   1.360   2.604   7.335
  290POPC   PO4 3470   1.016   2.496   7.201
  290POPC   GL1 3471   0.938   2.510   6.787
  290POPC   GL2 3472   0.781   2.276   6.805
  290POPC   C1A 3473   0.964   2.638   6.380
  290POPC   D2A 3474   1.369   2.382   6.104
  290POPC   C3A 3475   1.568   2.304   5.707
  290POPC   C4A 3476   1.478   1.842   5.657
  290POPC   C1B 3477   0.798   1.928   6.651
  290POPC   C2B 3478   0.806   1.531   6.495
  290POPC   C3B 3479   0.848   1.178   6.198
  290POPC   C4B 3480   0.867   0.901   5.774
  291POPC   NC3 3481  10.643  30.297   6.990
  291POPC   PO4 3482  11.015  30.152   7.027
  291POPC   GL1 3483  11.072  29.940   6.662
  291POPC   GL2 3484  11.014  30.067   6.459
  291POPC   C1A 3485  10.852  29.622   6.466
  291POPC   D2A 3486  10.309  29.450   6.559
  291POPC   C3A 3487   9.839  29.503   6.338
  291POPC   C4A 3488   9.392  29.299   6.232
  291POPC   C1B 3489  11.330  30.237   6.339
  291POPC   C2B 3490  11.499  30.548   6.158
  291POPC   C3B 3491  11.637  30.786   5.783
  291POPC   C4B 3492  11.821  30.943   5.302
  292POPC   NC3 3493  35.230  26.660   7.284
  292POPC   PO4 3494  35.565  26.726   7.398
  292POPC   GL1 3495  35.618  26.852   7.060
  292POPC   GL2 3496  35.843  26.754   6.916
  292POPC   C1A 3497  35.306  26.807   6.699
  292POPC   D2A 3498  35.299  26.415   6.383
  292POPC   C3A 3499  35.330  26.242   5.962
  292POPC   C4A 3500  35.603  26.255   5.613
  292POPC   C1B 3501  35.815  26.738   6.523
  292POPC   C2B 3502  36.012  26.747   6.123
  292POPC   C3B 3503  36.193  26.772   5.661
  292POPC   C4B 3504  36.156  26.887   5.191
  293POPC   NC3 3505  26.203  31.666   6.823
  293POPC   PO4 3506  26.505  31.450   6.911
  293POPC   GL1 3507  26.589  31.459   6.598
  293POPC   GL2 3508  26.824  31.249   6.571
  293POPC   C1A 3509  26.320  31.132   6.344
  293POPC   D2A 3510  26.242  31.325   5.946
  293POPC   C3A 3511  25.899  31.563   5.815
  293POPC   C4A 3512  25.664  31.697   5.415
  293POPC   C1B 3513  26.752  31.068   6.251
  293POPC   C2B 3514  26.661  31.090   5.787
  293POPC   C3B 3515  26.862  31.328   5.390
  293POPC   C4B 3516  27.059  31.678   5.116
  294POPC   NC3 3517   7.441   8.414   7.258
  294POPC   PO4 3518   7.772   8.264   7.191
  294POPC   GL1 3519   8.049   8.227   6.760
  294POPC   GL2 3520   7.827   8.388   6.569
  294POPC   C1A 3521   8.342   7.924   6.819
  294POPC   D2A 3522   8.341   7.474   6.602
  294POPC   C3A 3523   8.074   7.152   6.500
  294POPC   C4A 3524   7.927   7.055   6.016
  294POPC   C1B 3525   7.735   8.206   6.243
  294POPC   C2B 3526   7.810   7.928   5.963
  294POPC   C3B 3527   8.065   7.831   5.601
  294POPC   C4B 3528   8.094   7.947   5.115
  295POPC   NC3 3529  18.679  29.081   7.531
  295POPC   PO4 3530  19.000  28.808   7.476
  295POPC   GL1 3531  19.089  29.062   7.175
  295POPC   GL2 3532  19.116  28.798   7.038
  295POPC   C1A 3533  18.801  29.323   6.993
  295POPC   D2A 3534  18.310  29.299   6.872
  295POPC   C3A 3535  17.996  29.198   6.626
  295POPC   C4A 3536  18.206  28.742   6.713
  295POPC   C1B 3537  19.176  28.898   6.728
  295POPC   C2B 3538  19.058  28.791   6.355
  295POPC   C3B 3539  18.644  28.892   6.017
  295POPC   C4B 3540  18.577  28.480   5.782
  296POPC   NC3 3541  22.781  24.826   7.607
  296POPC   PO4 3542  22.433  24.614   7.455
  296POPC   GL1 3543  22.356  24.504   7.039
  296POPC   GL2 3544  22.137  24.307   7.060
  296POPC   C1A 3545  22.487  24.330   6.619
  296POPC   D2A 3546  22.341  23.862   6.495
  296POPC   C3A 3547  22.521  23.983   6.118
  296POPC   C4A 3548  22.794  23.808   5.776
  296POPC   C1B 3549  22.083  24.185   6.735
  296POPC   C2B 3550  22.004  24.183   6.330
  296POPC   C3B 3551  22.182  24.170   5.874
  296POPC   C4B 3552  22.288  23.780   5.620
  297POPC   NC3 3553  24.005  16.587   7.667
  297POPC   PO4 3554  24.098  16.206   7.687
  297POPC   GL1 3555  23.857  16.004   7.355
  297POPC   GL2 3556  23.672  16.300   7.328
  297POPC   C1A 3557  23.735  15.688   7.036
  297POPC   D2A 3558  23.738  15.697   6.497
  297POPC   C3A 3559  24.028  15.994   6.225
  297POPC   C4A 3560  24.290  16.348   6.386
  297POPC   C1B 3561  23.649  16.454   7.013
  297POPC   C2B 3562  23.785  16.491   6.641
  297POPC   C3B 3563  23.886  16.489   6.113
  297POPC   C4B 3564  23.884  16.478   5.574
  298POPC   NC3 3565   0.964  17.191   8.096
  298POPC   PO4 3566   0.915  16.957   7.754
  298POPC   GL1 3567   1.219  16.884   7.481
  298POPC   GL2 3568   1.159  16.609   7.370
  298POPC   C1A 3569   1.275  17.016   7.091
  298POPC   D2A 3570   1.264  17.134   6.636
  298POPC   C3A 3571   1.081  17.048   6.200
  298POPC   C4A 3572   0.884  16.955   5.735
  298POPC   C1B 3573   1.290  16.583   7.028
  298POPC   C2B 3574   1.303  16.581   6.597
  298POPC   C3B 3575   1.485  16.703   6.183
  298POPC   C4B 3576   1.750  16.799   5.780
  299POPC   NC3 3577  18.118  28.721   7.838
  299POPC   PO4 3578  17.816  28.572   7.603
  299POPC   GL1 3579  17.773  28.559   7.217
  299POPC   GL2 3580  17.549  28.393   7.235
  299POPC   C1A 3581  17.798  28.453   6.772
  299POPC   D2A 3582  17.665  28.400   6.314
  299POPC   C3A 3583  17.869  28.516   5.962
  299POPC   C4A 3584  18.169  28.541   5.582
  299POPC   C1B 3585  17.341  28.467   6.969
  299POPC   C2B 3586  17.180  28.659   6.646
  299POPC   C3B 3587  17.015  28.683   6.205
  299POPC   C4B 3588  16.821  28.752   5.810
  300POPC   NC3 3589   3.405   4.553   7.980
  300POPC   PO4 3590   3.386   4.674   7.604
  300POPC   GL1 3591   3.268   4.440   7.327
  300POPC   GL2 3592   3.080   4.681   7.256
  300POPC   C1A 3593   3.225   4.399   6.847
  300POPC   D2A 3594   3.094   4.363   6.357
  300POPC   C3A 3595   3.246   4.210   5.971
  300POPC   C4A 3596   3.500   4.058   5.576
  300POPC   C1B 3597   2.895   4.660   6.929
  300POPC   C2B 3598   2.670   4.548   6.593
  300POPC   C3B 3599   2.753   4.521   6.080
  300POPC   C4B 3600   2.540   4.540   5.601
  301POPC   NC3 3601   4.163  33.260   7.755
  301POPC   PO4 3602   4.519  33.117   7.692
  301POPC   GL1 3603   4.535  32.887   7.433
  301POPC   GL2 3604   4.748  32.752   7.266
  301POPC   C1A 3605   4.317  32.876   7.005
  301POPC   D2A 3606   4.224  32.734   6.527
  301POPC   C3A 3607   4.275  32.417   6.199
  301POPC   C4A 3608   4.481  32.541   5.749
  301POPC   C1B 3609   4.738  32.612   6.910
  301POPC   C2B 3610   4.599  32.390   6.621
  301POPC   C3B 3611   4.767  32.406   6.138
  301POPC   C4B 3612   4.982  32.384   5.663
  302POPC   NC3 3613  31.307  26.321   7.343
  302POPC   PO4 3614  31.669  26.536   7.300
  302POPC   GL1 3615  31.774  26.889   7.038
  302POPC   GL2 3616  31.496  27.032   6.986
  302POPC   C1A 3617  31.916  26.968   6.672
  302POPC   D2A 3618  32.022  27.051   6.203
  302POPC   C3A 3619  32.089  26.993   5.740
  302POPC   C4A 3620  32.106  27.095   5.260
  302POPC   C1B 3621  31.356  27.046   6.644
  302POPC   C2B 3622  31.441  26.959   6.265
  302POPC   C3B 3623  31.492  26.926   5.783
  302POPC   C4B 3624  31.215  26.664   5.507
  303POPC   NC3 3625   0.582  34.387   7.501
  303POPC   PO4 3626   0.249  34.171   7.491
  303POPC   GL1 3627   0.217  34.380   7.151
  303POPC   GL2 3628   0.415  34.545   7.037
  303POPC   C1A 3629  -0.030  34.170   6.865
  303POPC   D2A 3630  -0.055  34.188   6.358
  303POPC   C3A 3631  -0.024  34.022   5.891
  303POPC   C4A 3632   0.184  34.279   5.525
  303POPC   C1B 3633   0.168  34.576   6.788
  303POPC   C2B 3634   0.226  34.578   6.389
  303POPC   C3B 3635   0.415  34.697   5.961
  303POPC   C4B 3636   0.517  34.818   5.459
  304POPC   NC3 3637   6.182  35.823   7.830
  304POPC   PO4 3638   5.847  36.069   7.796
  304POPC   GL1 3639   5.943  36.285   7.404
  304POPC   GL2 3640   6.145  36.013   7.410
  304POPC   C1A 3641   5.821  36.056   7.083
  304POPC   D2A 3642   5.792  35.785   6.644
  304POPC   C3A 3643   5.758  35.948   6.218
  304POPC   C4A 3644   5.828  36.057   5.762
  304POPC   C1B 3645   6.289  36.059   7.075
  304POPC   C2B 3646   6.299  36.092   6.685
  304POPC   C3B 3647   6.216  36.170   6.228
  304POPC   C4B 3648   6.191  36.452   5.843
  305POPC   NC3 3649   4.153  11.095   7.875
  305POPC   PO4 3650   4.219  11.446   7.683
  305POPC   GL1 3651   4.301  11.112   7.332
  305POPC   GL2 3652   4.572  11.340   7.405
  305POPC   C1A 3653   4.105  11.032   6.965
  305POPC   D2A 3654   3.790  11.305   6.720
  305POPC   C3A 3655   3.756  11.449   6.300
  305POPC   C4A 3656   3.703  11.954   6.239
  305POPC   C1B 3657   4.740  11.462   7.056
  305POPC   C2B 3658   4.823  11.574   6.657
  305POPC   C3B 3659   5.047  11.712   6.288
  305POPC   C4B 3660   5.408  11.785   6.061
  306POPC   NC3 3661  21.199  23.840   8.224
  306POPC   PO4 3662  21.046  23.744   7.875
  306POPC   GL1 3663  21.126  23.501   7.461
  306POPC   GL2 3664  20.978  23.722   7.362
  306POPC   C1A 3665  21.056  23.208   7.145
  306POPC   D2A 3666  20.936  23.042   6.715
  306POPC   C3A 3667  20.993  22.802   6.373
  306POPC   C4A 3668  21.144  22.551   5.895
  306POPC   C1B 3669  21.138  23.766   7.058
  306POPC   C2B 3670  21.375  23.854   6.695
  306POPC   C3B 3671  21.503  24.104   6.282
  306POPC   C4B 3672  21.680  24.488   6.097
  307POPC   NC3 3673   5.735  25.962   7.641
  307POPC   PO4 3674   5.855  25.568   7.526
  307POPC   GL1 3675   5.900  25.537   7.089
  307POPC   GL2 3676   5.648  25.335   7.114
  307POPC   C1A 3677   5.905  25.627   6.695
  307POPC   D2A 3678   5.935  25.611   6.167
  307POPC   C3A 3679   5.855  25.817   5.742
  307POPC   C4A 3680   5.632  25.887   5.314
  307POPC   C1B 3681   5.412  25.304   6.838
  307POPC   C2B 3682   5.234  25.392   6.443
  307POPC   C3B 3683   5.313  25.547   6.018
  307POPC   C4B 3684   5.199  25.327   5.570
  308POPC   NC3 3685   7.295  26.872   7.257
  308POPC   PO4 3686   7.569  27.138   7.098
  308POPC   GL1 3687   7.445  26.835   6.832
  308POPC   GL2 3688   7.184  26.667   6.838
  308POPC   C1A 3689   7.642  26.751   6.480
  308POPC   D2A 3690   7.545  26.699   5.962
  308POPC   C3A 3691   7.454  26.809   5.595
  308POPC   C4A 3692   7.382  26.960   5.087
  308POPC   C1B 3693   7.183  26.514   6.511
  308POPC   C2B 3694   7.089  26.546   6.099
  308POPC   C3B 3695   6.856  26.547   5.701
  308POPC   C4B 3696   6.735  26.606   5.231
  309POPC   NC3 3697   2.927  29.639   7.812
  309POPC   PO4 3698   3.168  29.906   7.596
  309POPC   GL1 3699   3.394  29.815   7.185
  309POPC   GL2 3700   3.256  29.946   7.116
  309POPC   C1A 3701   3.436  29.415   6.973
  309POPC   D2A 3702   3.725  29.128   6.753
  309POPC   C3A 3703   3.608  29.206   6.307
  309POPC   C4A 3704   3.635  29.335   5.832
  309POPC   C1B 3705   3.148  29.768   6.811
  309POPC   C2B 3706   3.211  29.639   6.436
  309POPC   C3B 3707   3.272  29.677   5.969
  309POPC   C4B 3708   3.308  29.745   5.511
  310POPC   NC3 3709  21.334  26.730   7.237
  310POPC   PO4 3710  20.979  26.672   7.291
  310POPC   GL1 3711  20.683  26.611   7.001
  310POPC   GL2 3712  20.770  26.356   7.016
  310POPC   C1A 3713  20.435  26.574   6.634
  310POPC   D2A 3714  20.372  26.510   6.186
  310POPC   C3A 3715  20.451  26.140   5.942
  310POPC   C4A 3716  20.229  25.720   6.154
  310POPC   C1B 3717  20.899  26.433   6.674
  310POPC   C2B 3718  20.942  26.389   6.269
  310POPC   C3B 3719  21.040  26.529   5.795
  310POPC   C4B 3720  21.015  26.911   5.454
  311POPC   NC3 3721  15.633  18.813   7.423
  311POPC   PO4 3722  15.876  19.028   7.643
  311POPC   GL1 3723  16.078  19.026   7.245
  311POPC   GL2 3724  16.076  18.711   7.330
  311POPC   C1A 3725  16.159  19.319   6.955
  311POPC   D2A 3726  15.889  19.699   6.773
  311POPC   C3A 3727  15.520  19.999   6.715
  311POPC   C4A 3728  15.255  20.423   6.821
  311POPC   C1B 3729  16.004  18.695   6.975
  311POPC   C2B 3730  16.030  18.926   6.633
  311POPC   C3B 3731  16.192  19.397   6.460
  311POPC   C4B 3732  15.986  19.766   6.189
  312POPC   NC3 3733  13.010  27.165   7.300
  312POPC   PO4 3734  12.742  26.869   7.399
  312POPC   GL1 3735  12.725  26.645   7.008
  312POPC   GL2 3736  12.903  26.831   6.947
  312POPC   C1A 3737  12.526  26.592   6.611
  312POPC   D2A 3738  12.476  26.368   6.179
  312POPC   C3A 3739  12.253  26.399   5.755
  312POPC   C4A 3740  12.190  26.554   5.247
  312POPC   C1B 3741  13.064  26.888   6.641
  312POPC   C2B 3742  13.307  26.946   6.315
  312POPC   C3B 3743  13.329  26.916   5.844
  312POPC   C4B 3744  13.401  26.863   5.363
  313POPC   NC3 3745  19.072   2.575   8.151
  313POPC   PO4 3746  19.014   2.409   7.791
  313POPC   GL1 3747  18.831   2.448   7.381
  313POPC   GL2 3748  18.925   2.166   7.321
  313POPC   C1A 3749  18.771   2.644   7.027
  313POPC   D2A 3750  18.688   2.594   6.559
  313POPC   C3A 3751  18.884   2.854   6.180
  313POPC   C4A 3752  19.327   2.903   6.075
  313POPC   C1B 3753  19.020   2.130   7.019
  313POPC   C2B 3754  19.022   2.180   6.649
  313POPC   C3B 3755  18.927   2.272   6.130
  313POPC   C4B 3756  19.024   2.580   5.733
  314POPC   NC3 3757   2.359  11.473   7.794
  314POPC   PO4 3758   2.368  11.856   7.703
  314POPC   GL1 3759   2.551  11.964   7.318
  314POPC   GL2 3760   2.428  12.257   7.313
  314POPC   C1A 3761   2.501  11.708   6.918
  314POPC   D2A 3762   2.433  11.419   6.469
  314POPC   C3A 3763   2.459  11.519   5.977
  314POPC   C4A 3764   2.567  11.418   5.520
  314POPC   C1B 3765   2.610  12.375   7.050
  314POPC   C2B 3766   2.771  12.357   6.709
  314POPC   C3B 3767   2.558  12.562   6.338
  314POPC   C4B 3768   2.513  12.748   5.852
  315POPC   NC3 3769  25.903   7.876   7.645
  315POPC   PO4 3770  25.587   8.006   7.442
  315POPC   GL1 3771  25.550   8.178   7.044
  315POPC   GL2 3772  25.343   8.082   7.056
  315POPC   C1A 3773  25.854   8.044   6.745
  315POPC   D2A 3774  25.592   7.569   6.563
  315POPC   C3A 3775  25.652   7.510   6.142
  315POPC   C4A 3776  25.463   7.369   5.721
  315POPC   C1B 3777  25.334   7.916   6.755
  315POPC   C2B 3778  25.461   8.017   6.335
  315POPC   C3B 3779  25.566   8.024   5.857
  315POPC   C4B 3780  25.228   8.136   5.560
  316POPC   NC3 3781   4.016  34.318   8.201
  316POPC   PO4 3782   3.863  34.257   7.844
  316POPC   GL1 3783   3.996  34.334   7.415
  316POPC   GL2 3784   3.776  34.097   7.378
  316POPC   C1A 3785   4.352  34.189   7.090
  316POPC   D2A 3786   4.441  33.780   6.824
  316POPC   C3A 3787   4.279  33.667   6.415
  316POPC   C4A 3788   4.055  33.583   5.982
  316POPC   C1B 3789   3.901  33.896   7.090
  316POPC   C2B 3790   3.879  33.907   6.702
  316POPC   C3B 3791   3.910  33.950   6.255
  316POPC   C4B 3792   3.577  33.787   5.911
  317POPC   NC3 3793  15.230   7.547   8.432
  317POPC   PO4 3794  15.265   7.822   8.126
  317POPC   GL1 3795  15.222   7.756   7.657
  317POPC   GL2 3796  15.162   7.940   7.624
  317POPC   C1A 3797  15.484   7.515   7.460
  317POPC   D2A 3798  15.612   7.333   7.042
  317POPC   C3A 3799  15.684   7.437   6.645
  317POPC   C4A 3800  15.872   7.394   6.191
  317POPC   C1B 3801  15.215   7.876   7.223
  317POPC   C2B 3802  15.246   7.626   6.891
  317POPC   C3B 3803  15.192   7.589   6.445
  317POPC   C4B 3804  15.109   7.775   6.023
  318POPC   NC3 3805   7.909   5.765   7.941
  318POPC   PO4 3806   8.126   5.975   7.688
  318POPC   GL1 3807   8.091   6.149   7.303
  318POPC   GL2 3808   8.335   6.141   7.122
  318POPC   C1A 3809   7.892   6.097   6.963
  318POPC   D2A 3810   7.681   6.320   6.602
  318POPC   C3A 3811   7.988   6.090   6.320
  318POPC   C4A 3812   8.286   5.960   5.987
  318POPC   C1B 3813   8.338   6.267   6.776
  318POPC   C2B 3814   8.484   6.259   6.393
  318POPC   C3B 3815   8.733   6.387   6.019
  318POPC   C4B 3816   8.692   6.729   5.673
  319POPC   NC3 3817  20.883  12.533   7.722
  319POPC   PO4 3818  21.209  12.777   7.641
  319POPC   GL1 3819  21.174  12.725   7.227
  319POPC   GL2 3820  21.083  12.448   7.308
  319POPC   C1A 3821  21.126  12.808   6.805
  319POPC   D2A 3822  20.913  12.787   6.351
  319POPC   C3A 3823  20.474  12.806   6.254
  319POPC   C4A 3824  20.061  12.955   6.026
  319POPC   C1B 3825  21.065  12.308   6.939
  319POPC   C2B 3826  21.205  12.339   6.586
  319POPC   C3B 3827  21.365  12.509   6.164
  319POPC   C4B 3828  21.622  12.559   5.801
  320POPC   NC3 3829  27.543   8.005   7.476
  320POPC   PO4 3830  27.543   8.291   7.726
  320POPC   GL1 3831  27.169   8.600   7.464
  320POPC   GL2 3832  27.248   8.371   7.344
  320POPC   C1A 3833  27.220   8.893   7.243
  320POPC   D2A 3834  27.128   9.125   6.788
  320POPC   C3A 3835  26.852   8.979   6.504
  320POPC   C4A 3836  26.697   9.080   6.090
  320POPC   C1B 3837  27.098   8.112   7.100
  320POPC   C2B 3838  26.957   7.883   6.826
  320POPC   C3B 3839  26.879   7.909   6.329
  320POPC   C4B 3840  26.987   7.999   5.837
  321POPC   NC3 3841   6.188  16.939   7.829
  321POPC   PO4 3842   6.529  16.939   7.653
  321POPC   GL1 3843   6.524  16.885   7.314
  321POPC   GL2 3844   6.807  16.933   7.212
  321POPC   C1A 3845   6.287  16.996   6.940
  321POPC   D2A 3846   6.193  16.774   6.491
  321POPC   C3A 3847   5.791  16.951   6.247
  321POPC   C4A 3848   5.338  17.215   6.275
  321POPC   C1B 3849   6.757  17.035   6.836
  321POPC   C2B 3850   6.600  17.016   6.494
  321POPC   C3B 3851   6.513  16.943   6.084
  321POPC   C4B 3852   6.446  16.754   5.626
  322POPC   NC3 3853  23.724   2.023   7.556
  322POPC   PO4 3854  24.029   2.118   7.335
  322POPC   GL1 3855  24.073   2.017   7.002
  322POPC   GL2 3856  24.315   2.018   6.924
  322POPC   C1A 3857  23.897   2.115   6.625
  322POPC   D2A 3858  23.632   2.095   6.206
  322POPC   C3A 3859  23.656   2.256   5.752
  322POPC   C4A 3860  23.697   2.118   5.276
  322POPC   C1B 3861  24.358   2.171   6.629
  322POPC   C2B 3862  24.222   2.178   6.219
  322POPC   C3B 3863  24.145   2.103   5.723
  322POPC   C4B 3864  24.189   1.919   5.237
  323POPC   NC3 3865  23.144   4.153   7.655
  323POPC   PO4 3866  23.211   3.790   7.471
  323POPC   GL1 3867  23.395   3.833   7.078
  323POPC   GL2 3868  23.205   3.833   6.926
  323POPC   C1A 3869  23.766   3.707   6.807
  323POPC   D2A 3870  24.011   3.834   6.336
  323POPC   C3A 3871  23.963   3.863   5.916
  323POPC   C4A 3872  23.747   3.683   5.517
  323POPC   C1B 3873  23.326   3.700   6.581
  323POPC   C2B 3874  23.452   3.585   6.248
  323POPC   C3B 3875  23.784   3.406   5.956
  323POPC   C4B 3876  24.048   3.191   5.569
  324POPC   NC3 3877  23.303  32.255   7.416
  324POPC   PO4 3878  23.671  32.224   7.295
  324POPC   GL1 3879  23.560  32.195   6.883
  324POPC   GL2 3880  23.886  32.286   6.863
  324POPC   C1A 3881  23.753  31.940   6.537
  324POPC   D2A 3882  23.607  31.849   5.998
  324POPC   C3A 3883  23.481  32.010   5.526
  324POPC   C4A 3884  23.226  31.761   5.198
  324POPC   C1B 3885  24.102  32.318   6.559
  324POPC   C2B 3886  24.110  32.155   6.180
  324POPC   C3B 3887  24.031  32.032   5.727
  324POPC   C4B 3888  23.896  32.231   5.312
  325POPC   NC3 3889  11.166  23.136   6.589
  325POPC   PO4 3890  11.464  23.308   6.788
  325POPC   GL1 3891  11.635  23.098   6.516
  325POPC   GL2 3892  11.690  23.365   6.398
  325POPC   C1A 3893  11.409  23.082   6.090
  325POPC   D2A 3894  11.098  22.808   5.826
  325POPC   C3A 3895  11.080  22.626   5.392
  325POPC   C4A 3896  11.103  22.478   4.913
  325POPC   C1B 3897  11.780  23.412   6.041
  325POPC   C2B 3898  11.922  23.096   5.880
  325POPC   C3B 3899  12.115  22.871   5.499
  325POPC   C4B 3900  12.491  22.747   5.170
  326POPC   NC3 3901  11.381  27.453   7.555
  326POPC   PO4 3902  11.655  27.307   7.327
  326POPC   GL1 3903  11.616  27.323   6.888
  326POPC   GL2 3904  11.882  27.199   6.877
  326POPC   C1A 3905  11.585  27.170   6.464
  326POPC   D2A 3906  11.624  27.184   5.960
  326POPC   C3A 3907  11.521  26.975   5.602
  326POPC   C4A 3908  11.240  26.989   5.213
  326POPC   C1B 3909  12.040  27.260   6.541
  326POPC   C2B 3910  12.162  27.297   6.137
  326POPC   C3B 3911  12.234  27.548   5.684
  326POPC   C4B 3912  12.578  27.511   5.339
  327POPC   NC3 3913  31.253   0.883   7.763
  327POPC   PO4 3914  31.478   1.178   7.617
  327POPC   GL1 3915  31.531   1.195   7.193
  327POPC   GL2 3916  31.558   1.518   7.176
  327POPC   C1A 3917  31.735   1.092   6.780
  327POPC   D2A 3918  31.645   1.063   6.335
  327POPC   C3A 3919  31.637   1.349   5.938
  327POPC   C4A 3920  31.635   1.628   5.569
  327POPC   C1B 3921  31.577   1.508   6.777
  327POPC   C2B 3922  31.614   1.671   6.421
  327POPC   C3B 3923  31.504   1.853   6.025
  327POPC   C4B 3924  31.377   2.029   5.592
  328POPC   NC3 3925   7.038  24.780   7.325
  328POPC   PO4 3926   6.913  25.030   7.056
  328POPC   GL1 3927   6.980  25.339   6.899
  328POPC   GL2 3928   7.283  25.356   6.860
  328POPC   C1A 3929   6.824  25.394   6.477
  328POPC   D2A 3930   6.401  25.256   6.180
  328POPC   C3A 3931   6.132  25.356   5.797
  328POPC   C4A 3932   5.699  25.356   5.646
  328POPC   C1B 3933   7.365  25.342   6.491
  328POPC   C2B 3934   7.535  25.275   6.116
  328POPC   C3B 3935   7.701  25.337   5.729
  328POPC   C4B 3936   7.834  25.413   5.213
  329POPC   NC3 3937  31.342   8.566   7.654
  329POPC   PO4 3938  31.563   8.332   7.391
  329POPC   GL1 3939  31.514   8.263   7.055
  329POPC   GL2 3940  31.835   8.392   7.058
  329POPC   C1A 3941  31.367   8.067   6.713
  329POPC   D2A 3942  31.310   7.686   6.457
  329POPC   C3A 3943  31.439   7.740   5.950
  329POPC   C4A 3944  31.571   7.713   5.502
  329POPC   C1B 3945  31.841   8.479   6.714
  329POPC   C2B 3946  31.834   8.479   6.320
  329POPC   C3B 3947  31.885   8.441   5.796
  329POPC   C4B 3948  31.668   8.504   5.327
  330POPC   NC3 3949  16.888  26.380   7.609
  330POPC   PO4 3950  16.820  26.008   7.729
  330POPC   GL1 3951  16.645  26.072   7.358
  330POPC   GL2 3952  16.909  26.100   7.232
  330POPC   C1A 3953  16.216  26.123   7.122
  330POPC   D2A 3954  15.771  25.925   6.957
  330POPC   C3A 3955  15.702  25.774   6.545
  330POPC   C4A 3956  15.674  25.551   6.125
  330POPC   C1B 3957  16.873  26.089   6.838
  330POPC   C2B 3958  16.749  26.039   6.428
  330POPC   C3B 3959  16.658  25.858   6.021
  330POPC   C4B 3960  16.725  26.267   5.728
  331POPC   NC3 3961  20.977  32.396   7.366
  331POPC   PO4 3962  21.383  32.350   7.351
  331POPC   GL1 3963  21.357  32.444   6.960
  331POPC   GL2 3964  21.309  32.752   7.020
  331POPC   C1A 3965  21.211  32.289   6.561
  331POPC   D2A 3966  21.162  32.218   6.068
  331POPC   C3A 3967  20.789  32.102   5.794
  331POPC   C4A 3968  20.545  31.699   5.845
  331POPC   C1B 3969  21.116  32.746   6.690
  331POPC   C2B 3970  21.008  32.659   6.278
  331POPC   C3B 3971  20.742  32.582   5.900
  331POPC   C4B 3972  20.625  32.453   5.403
  332POPC   NC3 3973  22.347   3.724   7.799
  332POPC   PO4 3974  22.226   3.897   7.457
  332POPC   GL1 3975  22.250   3.932   7.099
  332POPC   GL2 3976  22.031   3.772   6.968
  332POPC   C1A 3977  22.467   4.085   6.844
  332POPC   D2A 3978  22.538   4.560   6.581
  332POPC   C3A 3979  22.741   4.337   6.212
  332POPC   C4A 3980  23.126   4.320   5.916
  332POPC   C1B 3981  21.980   3.742   6.615
  332POPC   C2B 3982  22.076   3.822   6.260
  332POPC   C3B 3983  22.207   3.548   5.862
  332POPC   C4B 3984  22.239   3.419   5.349
  333POPC   NC3 3985   5.729   7.233   7.216
  333POPC   PO4 3986   5.930   6.927   7.365
  333POPC   GL1 3987   6.289   6.923   7.015
  333POPC   GL2 3988   6.049   7.046   6.895
  333POPC   C1A 3989   6.479   6.720   6.678
  333POPC   D2A 3990   6.742   6.356   6.741
  333POPC   C3A 3991   6.990   6.452   6.312
  333POPC   C4A 3992   7.361   6.547   5.907
  333POPC   C1B 3993   6.055   7.019   6.536
  333POPC   C2B 3994   6.239   6.981   6.177
  333POPC   C3B 3995   6.350   6.939   5.713
  333POPC   C4B 3996   6.392   6.977   5.255
  334POPC   NC3 3997  16.707  30.958   7.669
  334POPC   PO4 3998  16.820  31.138   7.326
  334POPC   GL1 3999  16.727  31.424   6.947
  334POPC   GL2 4000  17.032  31.254   6.943
  334POPC   C1A 4001  16.758  31.438   6.485
  334POPC   D2A 4002  16.826  31.608   5.994
  334POPC   C3A 4003  16.779  31.500   5.555
  334POPC   C4A 4004  16.475  31.385   5.156
  334POPC   C1B 4005  17.138  31.117   6.598
  334POPC   C2B 4006  17.191  31.323   6.229
  334POPC   C3B 4007  17.225  31.401   5.727
  334POPC   C4B 4008  17.473  31.782   5.514
  335POPC   NC3 4009  26.449  11.785   7.687
  335POPC   PO4 4010  26.794  11.822   7.508
  335POPC   GL1 4011  26.876  11.642   7.226
  335POPC   GL2 4012  27.171  11.677   7.199
  335POPC   C1A 4013  26.707  11.460   6.826
  335POPC   D2A 4014  26.455  11.722   6.502
  335POPC   C3A 4015  26.585  11.770   6.095
  335POPC   C4A 4016  26.678  11.831   5.611
  335POPC   C1B 4017  27.173  11.902   6.901
  335POPC   C2B 4018  27.345  11.930   6.536
  335POPC   C3B 4019  27.507  12.042   6.055
  335POPC   C4B 4020  27.826  12.074   5.747
  336POPC   NC3 4021  28.218  26.143   7.190
  336POPC   PO4 4022  27.966  26.357   7.376
  336POPC   GL1 4023  27.838  26.655   7.028
  336POPC   GL2 4024  28.039  26.505   6.903
  336POPC   C1A 4025  27.556  26.679   6.598
  336POPC   D2A 4026  27.431  26.474   6.141
  336POPC   C3A 4027  27.508  26.291   5.729
  336POPC   C4A 4028  27.386  25.945   5.410
  336POPC   C1B 4029  28.259  26.549   6.600
  336POPC   C2B 4030  28.408  26.548   6.209
  336POPC   C3B 4031  28.531  26.775   5.803
  336POPC   C4B 4032  28.835  26.835   5.394
  337POPC   NC3 4033  11.360  24.486   6.869
  337POPC   PO4 4034  11.669  24.218   6.812
  337POPC   GL1 4035  11.437  23.927   6.533
  337POPC   GL2 4036  11.398  24.290   6.439
  337POPC   C1A 4037  11.752  23.845   6.281
  337POPC   D2A 4038  11.941  23.886   5.858
  337POPC   C3A 4039  11.786  23.622   5.541
  337POPC   C4A 4040  11.697  23.151   5.468
  337POPC   C1B 4041  11.147  24.436   6.200
  337POPC   C2B 4042  10.988  24.286   5.799
  337POPC   C3B 4043  11.040  24.188   5.349
  337POPC   C4B 4044  11.048  24.067   4.942
  338POPC   NC3 4045  12.508  13.872   7.790
  338POPC   PO4 4046  12.356  14.130   7.483
  338POPC   GL1 4047  12.240  14.080   7.119
  338POPC   GL2 4048  12.296  13.808   7.157
  338POPC   C1A 4049  12.041  14.158   6.732
  338POPC   D2A 4050  11.754  14.014   6.294
  338POPC   C3A 4051  11.329  14.086   6.516
  338POPC   C4A 4052  11.019  14.063   6.949
  338POPC   C1B 4053  12.162  13.590   6.881
  338POPC   C2B 4054  12.137  13.753   6.474
  338POPC   C3B 4055  12.047  13.731   5.969
  338POPC   C4B 4056  11.702  13.894   5.723
  339POPC   NC3 4057  20.470  20.065   8.213
  339POPC   PO4 4058  20.805  20.001   7.963
  339POPC   GL1 4059  20.922  19.656   7.658
  339POPC   GL2 4060  21.161  19.822   7.539
  339POPC   C1A 4061  20.682  19.381   7.429
  339POPC   D2A 4062  20.348  19.233   7.070
  339POPC   C3A 4063  20.341  19.209   6.619
  339POPC   C4A 4064  20.087  19.207   6.156
  339POPC   C1B 4065  21.437  19.669   7.371
  339POPC   C2B 4066  21.611  19.377   7.187
  339POPC   C3B 4067  21.823  19.009   6.879
  339POPC   C4B 4068  21.633  18.548   6.887
  340POPC   NC3 4069  21.268  17.768   7.985
  340POPC   PO4 4070  21.103  18.084   7.862
  340POPC   GL1 4071  21.469  18.114   7.539
  340POPC   GL2 4072  21.251  18.144   7.390
  340POPC   C1A 4073  21.727  18.181   7.312
  340POPC   D2A 4074  21.861  17.654   7.375
  340POPC   C3A 4075  22.196  17.332   7.341
  340POPC   C4A 4076  22.659  17.425   7.461
  340POPC   C1B 4077  21.336  18.262   7.073
  340POPC   C2B 4078  21.235  18.196   6.623
  340POPC   C3B 4079  21.209  18.257   6.103
  340POPC   C4B 4080  21.272  18.663   5.867
  341POPC   NC3 4081  23.582   8.578   7.388
  341POPC   PO4 4082  23.300   8.889   7.330
  341POPC   GL1 4083  22.937   8.879   7.107
  341POPC   GL2 4084  22.849   8.652   7.286
  341POPC   C1A 4085  22.792   8.947   6.668
  341POPC   D2A 4086  22.750   9.043   6.177
  341POPC   C3A 4087  23.033   8.858   5.839
  341POPC   C4A 4088  23.393   8.502   5.998
  341POPC   C1B 4089  22.810   8.457   7.008
  341POPC   C2B 4090  22.779   8.435   6.556
  341POPC   C3B 4091  22.782   8.519   6.091
  341POPC   C4B 4092  22.459   8.729   5.788
  342POPC   NC3 4093  17.419   2.165   7.593
  342POPC   PO4 4094  17.815   2.298   7.654
  342POPC   GL1 4095  18.060   2.215   7.392
  342POPC   GL2 4096  17.857   2.370   7.212
  342POPC   C1A 4097  18.467   2.235   7.194
  342POPC   D2A 4098  18.626   1.959   6.809
  342POPC   C3A 4099  18.645   1.893   6.342
  342POPC   C4A 4100  18.562   1.671   5.951
  342POPC   C1B 4101  17.824   2.637   6.899
  342POPC   C2B 4102  17.824   2.841   6.523
  342POPC   C3B 4103  18.077   3.168   6.211
  342POPC   C4B 4104  18.458   3.166   6.011
  343POPC   NC3 4105  12.462  25.287   6.897
  343POPC   PO4 4106  12.691  25.576   6.974
  343POPC   GL1 4107  12.576  25.642   6.548
  343POPC   GL2 4108  12.472  25.943   6.632
  343POPC   C1A 4109  12.622  25.488   6.103
  343POPC   D2A 4110  12.928  25.369   5.674
  343POPC   C3A 4111  12.661  25.148   5.399
  343POPC   C4A 4112  12.401  24.760   5.138
  343POPC   C1B 4113  12.354  25.927   6.303
  343POPC   C2B 4114  12.386  25.855   5.879
  343POPC   C3B 4115  12.453  26.063   5.430
  343POPC   C4B 4116  12.558  26.266   5.003
  344POPC   NC3 4117   5.521  29.654   7.379
  344POPC   PO4 4118   5.795  29.430   7.563
  344POPC   GL1 4119   6.058  29.420   7.207
  344POPC   GL2 4120   5.942  29.679   7.104
  344POPC   C1A 4121   6.030  29.245   6.823
  344POPC   D2A 4122   5.829  29.285   6.356
  344POPC   C3A 4123   5.580  29.260   6.029
  344POPC   C4A 4124   5.545  29.068   5.577
  344POPC   C1B 4125   6.025  29.969   6.882
  344POPC   C2B 4126   6.122  30.166   6.553
  344POPC   C3B 4127   6.075  30.177   6.065
  344POPC   C4B 4128   6.076  30.424   5.625
  345POPC   NC3 4129  33.492  25.664   8.524
  345POPC   PO4 4130  33.153  25.625   8.310
  345POPC   GL1 4131  33.348  25.559   7.951
  345POPC   GL2 4132  33.249  25.200   7.943
  345POPC   C1A 4133  33.586  25.596   7.678
  345POPC   D2A 4134  33.583  25.802   7.170
  345POPC   C3A 4135  33.434  26.049   6.819
  345POPC   C4A 4136  33.228  26.288   6.419
  345POPC   C1B 4137  33.253  25.195   7.598
  345POPC   C2B 4138  33.321  25.339   7.189
  345POPC   C3B 4139  33.526  25.429   6.772
  345POPC   C4B 4140  33.640  25.401   6.338
  346POPC   NC3 4141  35.726   4.859   7.313
  346POPC   PO4 4142  35.390   4.768   7.479
  346POPC   GL1 4143  35.247   4.511   7.148
  346POPC   GL2 4144  35.453   4.595   6.973
  346POPC   C1A 4145  35.307   4.015   7.037
  346POPC   D2A 4146  35.369   3.761   6.658
  346POPC   C3A 4147  35.585   3.556   6.290
  346POPC   C4A 4148  35.933   3.242   6.193
  346POPC   C1B 4149  35.605   4.948   6.860
  346POPC   C2B 4150  35.559   5.163   6.529
  346POPC   C3B 4151  35.302   5.396   6.191
  346POPC   C4B 4152  34.910   5.398   5.912
  347POPC   NC3 4153  20.865   0.254   7.796
  347POPC   PO4 4154  21.207   0.089   7.636
  347POPC   GL1 4155  21.262   0.015   7.242
  347POPC   GL2 4156  21.027   0.205   7.307
  347POPC   C1A 4157  21.411   0.264   6.938
  347POPC   D2A 4158  21.317   0.254   6.461
  347POPC   C3A 4159  21.383   0.292   6.011
  347POPC   C4A 4160  21.479   0.441   5.552
  347POPC   C1B 4161  20.845   0.277   6.962
  347POPC   C2B 4162  20.780   0.296   6.575
  347POPC   C3B 4163  20.901   0.278   6.083
  347POPC   C4B 4164  20.925   0.306   5.632
  348POPC   NC3 4165   8.128  29.987   7.422
  348POPC   PO4 4166   8.340  29.852   7.129
  348POPC   GL1 4167   8.120  29.892   6.750
  348POPC   GL2 4168   8.044  29.591   6.683
  348POPC   C1A 4169   7.987  30.299   6.690
  348POPC   D2A 4170   8.040  30.515   6.242
  348POPC   C3A 4171   7.954  30.399   5.859
  348POPC   C4A 4172   7.969  30.444   5.367
  348POPC   C1B 4173   8.316  29.467   6.466
  348POPC   C2B 4174   8.367  29.457   6.056
  348POPC   C3B 4175   8.280  29.365   5.601
  348POPC   C4B 4176   8.134  29.447   5.160
  349POPC   NC3 4177  20.803  20.938   7.402
  349POPC   PO4 4178  20.700  20.543   7.472
  349POPC   GL1 4179  20.538  20.278   7.216
  349POPC   GL2 4180  20.840  20.083   7.164
  349POPC   C1A 4181  20.557  20.341   6.757
  349POPC   D2A 4182  20.390  20.073   6.299
  349POPC   C3A 4183  20.674  19.983   6.054
  349POPC   C4A 4184  20.775  19.622   5.649
  349POPC   C1B 4185  20.881  20.010   6.778
  349POPC   C2B 4186  21.020  19.851   6.441
  349POPC   C3B 4187  20.995  19.530   6.072
  349POPC   C4B 4188  21.227  19.613   5.650
  350POPC   NC3 4189  23.090  11.778   7.014
  350POPC   PO4 4190  22.705  11.655   7.043
  350POPC   GL1 4191  22.426  11.390   6.771
  350POPC   GL2 4192  22.691  11.439   6.632
  350POPC   C1A 4193  22.243  11.068   6.478
  350POPC   D2A 4194  21.955  10.840   6.143
  350POPC   C3A 4195  21.759  10.533   5.835
  350POPC   C4A 4196  21.395  10.319   5.590
  350POPC   C1B 4197  22.633  11.396   6.266
  350POPC   C2B 4198  22.470  11.156   5.987
  350POPC   C3B 4199  21.967  11.079   5.765
  350POPC   C4B 4200  21.709  10.944   5.406
  351POPC   NC3 4201  26.204  24.128   7.439
  351POPC   PO4 4202  26.489  24.144   7.215
  351POPC   GL1 4203  26.521  24.461   6.889
  351POPC   GL2 4204  26.666  24.644   6.972
  351POPC   C1A 4205  26.458  24.342   6.529
  351POPC   D2A 4206  26.495  24.250   6.119
  351POPC   C3A 4207  26.549  24.053   5.711
  351POPC   C4A 4208  26.696  24.233   5.273
  351POPC   C1B 4209  26.820  24.675   6.620
  351POPC   C2B 4210  26.872  24.596   6.222
  351POPC   C3B 4211  26.942  24.451   5.854
  351POPC   C4B 4212  27.250  24.250   5.604
  352POPC   NC3 4213  20.972   8.277   7.429
  352POPC   PO4 4214  21.324   8.177   7.404
  352POPC   GL1 4215  21.417   7.972   7.125
  352POPC   GL2 4216  21.598   7.798   7.081
  352POPC   C1A 4217  21.441   8.292   6.793
  352POPC   D2A 4218  21.232   8.521   6.422
  352POPC   C3A 4219  21.412   8.783   6.060
  352POPC   C4A 4220  21.550   8.746   5.576
  352POPC   C1B 4221  21.602   7.836   6.743
  352POPC   C2B 4222  21.640   8.050   6.359
  352POPC   C3B 4223  21.795   7.997   5.989
  352POPC   C4B 4224  22.061   8.033   5.607
  353POPC   NC3 4225  33.055  13.890   7.842
  353POPC   PO4 4226  33.066  14.335   7.771
  353POPC   GL1 4227  32.917  14.619   7.456
  353POPC   GL2 4228  32.600  14.609   7.499
  353POPC   C1A 4229  32.927  14.575   6.998
  353POPC   D2A 4230  32.927  14.201   6.704
  353POPC   C3A 4231  32.892  14.256   6.238
  353POPC   C4A 4232  32.768  14.366   5.761
  353POPC   C1B 4233  32.566  14.356   7.201
  353POPC   C2B 4234  32.470  14.249   6.826
  353POPC   C3B 4235  32.497  14.055   6.421
  353POPC   C4B 4236  32.406  13.779   5.995
  354POPC   NC3 4237  16.867  24.495   8.003
  354POPC   PO4 4238  17.236  24.646   7.904
  354POPC   GL1 4239  17.372  24.550   7.493
  354POPC   GL2 4240  17.636  24.580   7.487
  354POPC   C1A 4241  17.295  24.730   7.154
  354POPC   D2A 4242  17.344  24.823   6.627
  354POPC   C3A 4243  17.176  24.986   6.192
  354POPC   C4A 4244  16.842  24.900   5.798
  354POPC   C1B 4245  17.741  24.629   7.135
  354POPC   C2B 4246  17.810  24.902   6.821
  354POPC   C3B 4247  17.754  24.909   6.371
  354POPC   C4B 4248  17.656  25.012   5.933
  355POPC   NC3 4249  31.393  32.342   7.472
  355POPC   PO4 4250  31.767  32.307   7.520
  355POPC   GL1 4251  31.742  32.037   7.130
  355POPC   GL2 4252  31.479  31.979   7.245
  355POPC   C1A 4253  32.013  31.848   6.860
  355POPC   D2A 4254  32.115  31.372   6.827
  355POPC   C3A 4255  32.231  31.109   6.420
  355POPC   C4A 4256  32.093  30.968   6.010
  355POPC   C1B 4257  31.409  31.693   7.042
  355POPC   C2B 4258  31.608  31.624   6.693
  355POPC   C3B 4259  31.867  31.502   6.263
  355POPC   C4B 4260  32.192  31.482   5.786
  356POPC   NC3 4261  11.282  12.552   7.845
  356POPC   PO4 4262  11.632  12.348   7.722
  356POPC   GL1 4263  11.573  12.496   7.313
  356POPC   GL2 4264  11.735  12.641   7.418
  356POPC   C1A 4265  11.680  12.361   6.891
  356POPC   D2A 4266  11.717  12.315   6.419
  356POPC   C3A 4267  11.829  12.270   5.975
  356POPC   C4A 4268  12.056  12.254   5.490
  356POPC   C1B 4269  11.924  12.645   7.103
  356POPC   C2B 4270  12.089  12.588   6.713
  356POPC   C3B 4271  12.136  12.578   6.203
  356POPC   C4B 4272  12.344  12.294   5.885
  357POPC   NC3 4273  29.624  15.675   7.612
  357POPC   PO4 4274  29.272  15.804   7.501
  357POPC   GL1 4275  29.410  15.761   7.089
  357POPC   GL2 4276  29.660  15.643   7.165
  357POPC   C1A 4277  29.387  15.932   6.679
  357POPC   D2A 4278  29.347  15.915   6.181
  357POPC   C3A 4279  29.455  15.862   5.733
  357POPC   C4A 4280  29.556  15.451   5.431
  357POPC   C1B 4281  30.013  15.534   7.004
  357POPC   C2B 4282  30.128  15.473   6.577
  357POPC   C3B 4283  30.268  15.555   6.127
  357POPC   C4B 4284  30.566  15.318   5.855
  358POPC   NC3 4285   1.536   8.733   7.558
  358POPC   PO4 4286   1.172   8.526   7.714
  358POPC   GL1 4287   0.899   8.401   7.483
  358POPC   GL2 4288   1.092   8.440   7.173
  358POPC   C1A 4289   0.482   8.320   7.397
  358POPC   D2A 4290  -0.005   8.490   7.329
  358POPC   C3A 4291  -0.027   8.923   7.094
  358POPC   C4A 4292  -0.399   8.910   6.809
  358POPC   C1B 4293   0.916   8.483   6.896
  358POPC   C2B 4294   0.944   8.558   6.506
  358POPC   C3B 4295   0.984   8.970   6.334
  358POPC   C4B 4296   1.218   9.068   5.902
  359POPC   NC3 4297  25.485  24.339   7.471
  359POPC   PO4 4298  25.726  24.056   7.608
  359POPC   GL1 4299  25.716  23.915   7.129
  359POPC   GL2 4300  25.838  23.643   7.270
  359POPC   C1A 4301  25.963  23.870   6.787
  359POPC   D2A 4302  26.031  23.505   6.347
  359POPC   C3A 4303  26.090  23.319   6.000
  359POPC   C4A 4304  26.036  23.181   5.536
  359POPC   C1B 4305  25.976  23.435   7.098
  359POPC   C2B 4306  25.854  23.169   6.795
  359POPC   C3B 4307  25.913  23.030   6.375
  359POPC   C4B 4308  25.805  22.937   5.909
  360POPC   NC3 4309  32.087  29.647   7.992
  360POPC   PO4 4310  32.265  29.953   7.836
  360POPC   GL1 4311  32.119  29.949   7.466
  360POPC   GL2 4312  31.883  30.141   7.413
  360POPC   C1A 4313  32.174  29.586   7.124
  360POPC   D2A 4314  32.546  29.262   6.933
  360POPC   C3A 4315  32.732  29.405   6.544
  360POPC   C4A 4316  32.853  29.238   6.088
  360POPC   C1B 4317  31.880  30.038   7.088
  360POPC   C2B 4318  32.007  30.256   6.717
  360POPC   C3B 4319  32.116  30.218   6.244
  360POPC   C4B 4320  32.237  29.967   5.771
  361POPC   NC3 4321   9.447  25.354   6.623
  361POPC   PO4 4322   9.436  25.701   6.748
  361POPC   GL1 4323   9.539  25.938   6.362
  361POPC   GL2 4324   9.388  25.667   6.265
  361POPC   C1A 4325   9.522  26.156   5.985
  361POPC   D2A 4326   9.671  26.176   5.496
  361POPC   C3A 4327   9.798  26.452   5.117
  361POPC   C4A 4328   9.868  26.245   4.644
  361POPC   C1B 4329   9.289  25.716   5.938
  361POPC   C2B 4330   9.237  25.816   5.534
  361POPC   C3B 4331   9.185  26.247   5.317
  361POPC   C4B 4332   9.062  26.644   4.985
  362POPC   NC3 4333  24.368   3.274   7.267
  362POPC   PO4 4334  24.088   3.522   7.410
  362POPC   GL1 4335  23.779   3.347   7.071
  362POPC   GL2 4336  23.973   3.115   7.105
  362POPC   C1A 4337  23.515   3.270   6.680
  362POPC   D2A 4338  23.979   3.249   6.414
  362POPC   C3A 4339  24.166   3.056   6.066
  362POPC   C4A 4340  24.446   2.863   5.680
  362POPC   C1B 4341  24.256   3.110   6.792
  362POPC   C2B 4342  24.440   3.072   6.464
  362POPC   C3B 4343  24.682   3.141   6.017
  362POPC   C4B 4344  24.899   3.342   5.686
  363POPC   NC3 4345  31.075  24.866   7.912
  363POPC   PO4 4346  31.462  24.943   7.836
  363POPC   GL1 4347  31.541  24.891   7.386
  363POPC   GL2 4348  31.566  24.602   7.398
  363POPC   C1A 4349  31.774  24.946   7.076
  363POPC   D2A 4350  31.899  25.082   6.677
  363POPC   C3A 4351  31.862  25.202   6.253
  363POPC   C4A 4352  31.902  25.497   5.856
  363POPC   C1B 4353  31.572  24.548   7.018
  363POPC   C2B 4354  31.630  24.506   6.631
  363POPC   C3B 4355  31.759  24.471   6.182
  363POPC   C4B 4356  31.956  24.196   5.791
  364POPC   NC3 4357  19.383  22.628   7.986
  364POPC   PO4 4358  19.596  22.790   7.676
  364POPC   GL1 4359  19.572  22.704   7.278
  364POPC   GL2 4360  19.869  22.682   7.301
  364POPC   C1A 4361  19.422  22.729   6.863
  364POPC   D2A 4362  19.450  22.749   6.401
  364POPC   C3A 4363  19.613  22.881   5.990
  364POPC   C4A 4364  19.655  23.210   5.617
  364POPC   C1B 4365  19.860  22.683   6.888
  364POPC   C2B 4366  19.917  22.574   6.464
  364POPC   C3B 4367  20.044  22.532   5.959
  364POPC   C4B 4368  20.312  22.512   5.508
  365POPC   NC3 4369  14.528  33.956   7.737
  365POPC   PO4 4370  14.265  34.125   7.521
  365POPC   GL1 4371  14.278  34.364   7.181
  365POPC   GL2 4372  14.583  34.321   7.081
  365POPC   C1A 4373  14.001  34.308   6.831
  365POPC   D2A 4374  13.969  34.091   6.345
  365POPC   C3A 4375  13.884  33.955   5.967
  365POPC   C4A 4376  13.588  33.679   6.132
  365POPC   C1B 4377  14.528  34.165   6.729
  365POPC   C2B 4378  14.446  34.034   6.331
  365POPC   C3B 4379  14.388  33.917   5.853
  365POPC   C4B 4380  14.061  33.770   5.507
  366POPC   NC3 4381  30.241  21.198   7.113
  366POPC   PO4 4382  30.323  21.597   7.021
  366POPC   GL1 4383  30.389  21.699   6.557
  366POPC   GL2 4384  30.123  21.815   6.617
  366POPC   C1A 4385  30.387  21.462   6.202
  366POPC   D2A 4386  30.353  21.410   5.695
  366POPC   C3A 4387  30.741  21.242   5.506
  366POPC   C4A 4388  30.824  21.060   5.084
  366POPC   C1B 4389  30.059  22.040   6.354
  366POPC   C2B 4390  29.927  22.171   5.937
  366POPC   C3B 4391  29.725  22.297   5.544
  366POPC   C4B 4392  29.557  22.317   5.112
  367POPC   NC3 4393  21.789   8.221   7.098
  367POPC   PO4 4394  21.925   7.973   7.405
  367POPC   GL1 4395  22.061   7.774   7.072
  367POPC   GL2 4396  22.004   7.942   6.818
  367POPC   C1A 4397  22.420   7.509   6.962
  367POPC   D2A 4398  22.841   7.232   7.020
  367POPC   C3A 4399  22.838   6.782   6.848
  367POPC   C4A 4400  22.746   6.548   6.446
  367POPC   C1B 4401  22.065   7.949   6.460
  367POPC   C2B 4402  22.267   7.839   6.099
  367POPC   C3B 4403  22.618   7.834   5.727
  367POPC   C4B 4404  22.872   8.032   5.316
  368POPC   NC3 4405  18.967  21.653   7.819
  368POPC   PO4 4406  19.344  21.693   7.718
  368POPC   GL1 4407  19.360  21.678   7.319
  368POPC   GL2 4408  19.018  21.617   7.349
  368POPC   C1A 4409  19.250  21.755   6.927
  368POPC   D2A 4410  19.187  21.907   6.402
  368POPC   C3A 4411  19.152  22.172   5.947
  368POPC   C4A 4412  19.488  22.470   5.659
  368POPC   C1B 4413  18.803  21.597   7.079
  368POPC   C2B 4414  18.711  21.634   6.676
  368POPC   C3B 4415  18.675  21.459   6.204
  368POPC   C4B 4416  18.546  21.410   5.754
  369POPC   NC3 4417  35.195   9.789   7.570
  369POPC   PO4 4418  35.464   9.715   7.267
  369POPC   GL1 4419  35.277   9.611   6.837
  369POPC   GL2 4420  35.544   9.377   6.851
  369POPC   C1A 4421  35.428   9.644   6.455
  369POPC   D2A 4422  35.514   9.372   6.078
  369POPC   C3A 4423  35.835   9.411   5.761
  369POPC   C4A 4424  36.255   9.305   5.384
  369POPC   C1B 4425  35.829   9.343   6.554
  369POPC   C2B 4426  36.064   9.362   6.198
  369POPC   C3B 4427  36.465   9.435   5.889
  369POPC   C4B 4428  36.730   9.151   5.613
  370POPC   NC3 4429   9.098  11.840   7.759
  370POPC   PO4 4430   8.839  11.857   7.479
  370POPC   GL1 4431   8.852  12.064   7.098
  370POPC   GL2 4432   8.652  12.227   7.182
  370POPC   C1A 4433   8.694  11.862   6.714
  370POPC   D2A 4434   8.608  11.939   6.201
  370POPC   C3A 4435   8.587  11.751   5.776
  370POPC   C4A 4436   8.777  11.913   5.360
  370POPC   C1B 4437   8.430  12.271   6.948
  370POPC   C2B 4438   8.483  12.333   6.522
  370POPC   C3B 4439   8.578  12.375   6.026
  370POPC   C4B 4440   8.695  12.324   5.626
  371POPC   NC3 4441   7.346  33.928   7.186
  371POPC   PO4 4442   7.017  33.789   7.008
  371POPC   GL1 4443   6.917  33.685   6.611
  371POPC   GL2 4444   6.744  33.957   6.540
  371POPC   C1A 4445   7.005  33.422   6.337
  371POPC   D2A 4446   6.893  33.302   5.889
  371POPC   C3A 4447   7.099  33.113   5.533
  371POPC   C4A 4448   7.465  33.249   5.182
  371POPC   C1B 4449   6.673  33.811   6.207
  371POPC   C2B 4450   6.565  33.745   5.812
  371POPC   C3B 4451   6.350  33.790   5.339
  371POPC   C4B 4452   6.180  34.148   5.046
  372POPC   NC3 4453   0.275  20.562   8.099
  372POPC   PO4 4454  -0.090  20.664   8.053
  372POPC   GL1 4455  -0.219  20.863   7.643
  372POPC   GL2 4456   0.067  20.749   7.651
  372POPC   C1A 4457  -0.351  20.454   7.463
  372POPC   D2A 4458  -0.616  20.074   7.349
  372POPC   C3A 4459  -0.474  19.772   7.078
  372POPC   C4A 4460  -0.833  19.591   6.786
  372POPC   C1B 4461   0.088  20.546   7.296
  372POPC   C2B 4462   0.062  20.204   7.126
  372POPC   C3B 4463  -0.121  19.909   6.791
  372POPC   C4B 4464  -0.356  19.500   6.627
  373POPC   NC3 4465   6.852  11.208   6.625
  373POPC   PO4 4466   6.654  11.372   6.963
  373POPC   GL1 4467   6.455  11.658   6.790
  373POPC   GL2 4468   6.403  11.889   7.066
  373POPC   C1A 4469   6.545  11.761   6.428
  373POPC   D2A 4470   6.501  12.225   6.284
  373POPC   C3A 4471   6.318  12.456   5.892
  373POPC   C4A 4472   5.959  12.386   5.545
  373POPC   C1B 4473   6.524  12.177   6.827
  373POPC   C2B 4474   6.450  12.544   6.727
  373POPC   C3B 4475   6.188  12.744   6.386
  373POPC   C4B 4476   5.765  12.816   6.225
  374POPC   NC3 4477  34.490  15.426   7.899
  374POPC   PO4 4478  34.595  15.819   7.962
  374POPC   GL1 4479  34.809  16.048   7.663
  374POPC   GL2 4480  34.484  16.088   7.605
  374POPC   C1A 4481  35.099  15.948   7.350
  374POPC   D2A 4482  35.135  15.808   6.837
  374POPC   C3A 4483  35.554  15.676   6.532
  374POPC   C4A 4484  35.448  15.353   6.182
  374POPC   C1B 4485  34.358  15.989   7.286
  374POPC   C2B 4486  34.285  16.001   6.871
  374POPC   C3B 4487  34.322  16.057   6.411
  374POPC   C4B 4488  34.394  16.232   5.907
  375POPC   NC3 4489  11.609  25.090   6.825
  375POPC   PO4 4490  11.969  25.260   6.907
  375POPC   GL1 4491  12.123  25.449   6.443
  375POPC   GL2 4492  12.220  25.190   6.494
  375POPC   C1A 4493  12.131  25.374   6.068
  375POPC   D2A 4494  12.335  25.502   5.570
  375POPC   C3A 4495  12.006  25.681   5.273
  375POPC   C4A 4496  11.928  26.123   5.470
  375POPC   C1B 4497  12.182  24.937   6.275
  375POPC   C2B 4498  11.937  24.910   5.986
  375POPC   C3B 4499  11.777  24.705   5.622
  375POPC   C4B 4500  11.820  24.575   5.180
  376POPC   NC3 4501   8.038  35.347   7.328
  376POPC   PO4 4502   7.911  35.055   7.132
  376POPC   GL1 4503   7.908  34.828   6.783
  376POPC   GL2 4504   8.129  34.936   6.641
  376POPC   C1A 4505   7.616  35.055   6.527
  376POPC   D2A 4506   7.688  35.537   6.482
  376POPC   C3A 4507   7.602  36.052   6.426
  376POPC   C4A 4508   7.380  36.570   6.423
  376POPC   C1B 4509   8.006  34.648   6.370
  376POPC   C2B 4510   7.718  34.375   6.208
  376POPC   C3B 4511   7.587  34.356   5.777
  376POPC   C4B 4512   7.322  34.181   5.404
  377POPC   NC3 4513  15.526  14.417   7.253
  377POPC   PO4 4514  15.895  14.208   7.246
  377POPC   GL1 4515  16.079  14.306   6.834
  377POPC   GL2 4516  15.962  14.008   6.758
  377POPC   C1A 4517  15.885  14.330   6.497
  377POPC   D2A 4518  15.883  14.490   6.101
  377POPC   C3A 4519  16.030  14.661   5.634
  377POPC   C4A 4520  16.351  14.924   5.348
  377POPC   C1B 4521  15.989  13.921   6.408
  377POPC   C2B 4522  15.960  14.002   5.990
  377POPC   C3B 4523  15.763  14.249   5.655
  377POPC   C4B 4524  15.573  14.483   5.322
  378POPC   NC3 4525  22.857  35.562   7.824
  378POPC   PO4 4526  22.870  35.244   7.579
  378POPC   GL1 4527  22.695  35.176   7.162
  378POPC   GL2 4528  22.434  35.325   7.246
  378POPC   C1A 4529  22.800  34.902   6.884
  378POPC   D2A 4530  22.658  34.695   6.433
  378POPC   C3A 4531  22.606  34.710   6.003
  378POPC   C4A 4532  22.352  34.755   5.577
  378POPC   C1B 4533  22.211  35.419   6.992
  378POPC   C2B 4534  22.002  35.466   6.668
  378POPC   C3B 4535  21.842  35.461   6.189
  378POPC   C4B 4536  21.841  35.610   5.749
  379POPC   NC3 4537  27.839  35.716   7.791
  379POPC   PO4 4538  28.118  35.860   7.588
  379POPC   GL1 4539  28.128  36.007   7.216
  379POPC   GL2 4540  28.256  36.186   7.089
  379POPC   C1A 4541  27.727  36.176   7.139
  379POPC   D2A 4542  27.310  36.071   6.904
  379POPC   C3A 4543  27.362  36.258   6.479
  379POPC   C4A 4544  27.614  36.465   6.088
  379POPC   C1B 4545  28.376  36.090   6.772
  379POPC   C2B 4546  28.383  35.943   6.369
  379POPC   C3B 4547  28.153  35.936   5.960
  379POPC   C4B 4548  27.806  35.919   5.652
  380POPC   NC3 4549  24.538  34.277   7.651
  380POPC   PO4 4550  24.171  34.322   7.463
  380POPC   GL1 4551  24.204  34.260   6.993
  380POPC   GL2 4552  23.994  34.042   6.991
  380POPC   C1A 4553  24.018  34.503   6.630
  380POPC   D2A 4554  23.835  34.459   6.208
  380POPC   C3A 4555  24.065  34.577   5.836
  380POPC   C4A 4556  23.878  34.795   5.446
  380POPC   C1B 4557  23.760  34.030   6.654
  380POPC   C2B 4558  23.818  33.986   6.235
  380POPC   C3B 4559  23.738  33.831   5.759
  380POPC   C4B 4560  23.450  33.551   5.470
  381POPC   NC3 4561  15.636  20.780   7.518
  381POPC   PO4 4562  15.790  21.144   7.575
  381POPC   GL1 4563  15.749  21.301   7.137
  381POPC   GL2 4564  15.993  21.298   7.179
  381POPC   C1A 4565  15.764  21.354   6.721
  381POPC   D2A 4566  15.834  21.152   6.264
  381POPC   C3A 4567  15.929  21.444   5.985
  381POPC   C4A 4568  15.716  21.872   5.734
  381POPC   C1B 4569  16.184  21.063   6.924
  381POPC   C2B 4570  16.527  20.954   6.645
  381POPC   C3B 4571  16.498  20.610   6.326
  381POPC   C4B 4572  16.786  20.303   6.035
  382POPC   NC3 4573  33.457  32.155   7.817
  382POPC   PO4 4574  33.769  31.932   7.690
  382POPC   GL1 4575  33.573  31.686   7.329
  382POPC   GL2 4576  33.368  31.918   7.417
  382POPC   C1A 4577  33.548  31.578   6.818
  382POPC   D2A 4578  33.493  31.460   6.318
  382POPC   C3A 4579  33.673  31.552   5.913
  382POPC   C4A 4580  33.960  31.664   5.510
  382POPC   C1B 4581  33.380  31.950   7.076
  382POPC   C2B 4582  33.799  31.996   6.920
  382POPC   C3B 4583  34.141  31.781   6.703
  382POPC   C4B 4584  34.328  31.700   6.265
  383POPC   NC3 4585  29.877   8.598   7.604
  383POPC   PO4 4586  30.081   8.366   7.321
  383POPC   GL1 4587  29.900   8.274   6.981
  383POPC   GL2 4588  29.783   8.548   6.832
  383POPC   C1A 4589  29.455   8.239   6.847
  383POPC   D2A 4590  29.064   8.002   6.602
  383POPC   C3A 4591  28.987   8.066   6.150
  383POPC   C4A 4592  28.778   7.953   5.710
  383POPC   C1B 4593  29.841   8.615   6.493
  383POPC   C2B 4594  29.761   8.639   6.072
  383POPC   C3B 4595  29.620   8.805   5.616
  383POPC   C4B 4596  29.610   8.885   5.135
  384POPC   NC3 4597  12.414  10.554   6.765
  384POPC   PO4 4598  12.518  10.944   6.847
  384POPC   GL1 4599  12.522  10.927   6.471
  384POPC   GL2 4600  12.770  10.732   6.483
  384POPC   C1A 4601  12.360  10.878   6.101
  384POPC   D2A 4602  12.057  10.957   5.721
  384POPC   C3A 4603  11.617  11.010   5.791
  384POPC   C4A 4604  11.179  11.186   5.862
  384POPC   C1B 4605  13.007  10.471   6.198
  384POPC   C2B 4606  12.965  10.309   5.791
  384POPC   C3B 4607  13.040  10.161   5.300
  384POPC   C4B 4608  13.136  10.016   4.877
  385POPC   NC3 4609  10.397  10.602   7.343
  385POPC   PO4 4610  10.480  10.955   7.232
  385POPC   GL1 4611  10.637  11.084   6.858
  385POPC   GL2 4612  10.724  10.794   6.912
  385POPC   C1A 4613  10.367  11.095   6.589
  385POPC   D2A 4614  10.118  11.404   6.205
  385POPC   C3A 4615   9.725  11.597   6.309
  385POPC   C4A 4616   9.357  11.434   6.563
  385POPC   C1B 4617  10.745  10.822   6.524
  385POPC   C2B 4618  10.668  10.897   6.140
  385POPC   C3B 4619  10.723  11.108   5.717
  385POPC   C4B 4620  10.902  11.362   5.349
  386POPC   NC3 4621  33.500  34.047   7.520
  386POPC   PO4 4622  33.872  34.065   7.470
  386POPC   GL1 4623  34.079  34.010   7.103
  386POPC   GL2 4624  34.299  33.805   7.247
  386POPC   C1A 4625  33.946  34.294   6.759
  386POPC   D2A 4626  34.136  34.413   6.406
  386POPC   C3A 4627  34.252  34.731   6.083
  386POPC   C4A 4628  34.430  34.952   5.681
  386POPC   C1B 4629  34.334  33.717   6.894
  386POPC   C2B 4630  34.279  33.509   6.543
  386POPC   C3B 4631  34.209  33.222   6.208
  386POPC   C4B 4632  34.326  33.077   5.743
  387POPC   NC3 4633  29.900  21.892   7.157
  387POPC   PO4 4634  29.812  22.102   6.830
  387POPC   GL1 4635  29.806  22.396   6.663
  387POPC   GL2 4636  29.573  22.545   6.681
  387POPC   C1A 4637  29.933  22.513   6.293
  387POPC   D2A 4638  29.866  22.699   5.848
  387POPC   C3A 4639  29.713  23.073   5.779
  387POPC   C4A 4640  30.079  23.097   5.407
  387POPC   C1B 4641  29.383  22.536   6.417
  387POPC   C2B 4642  29.368  22.609   6.029
  387POPC   C3B 4643  29.164  22.519   5.644
  387POPC   C4B 4644  29.082  22.528   5.140
  388POPC   NC3 4645   1.764  25.696   8.096
  388POPC   PO4 4646   1.743  25.638   7.703
  388POPC   GL1 4647   1.952  25.492   7.309
  388POPC   GL2 4648   1.824  25.777   7.251
  388POPC   C1A 4649   1.941  25.175   7.052
  388POPC   D2A 4650   1.722  24.704   6.987
  388POPC   C3A 4651   1.702  24.215   6.993
  388POPC   C4A 4652   1.524  23.771   7.206
  388POPC   C1B 4653   1.687  26.040   7.049
  388POPC   C2B 4654   1.742  26.437   6.869
  388POPC   C3B 4655   2.057  26.697   6.721
  388POPC   C4B 4656   2.326  26.898   6.348
  389POPC   NC3 4657  10.088  13.215   7.542
  389POPC   PO4 4658  10.314  12.893   7.625
  389POPC   GL1 4659  10.189  12.697   7.179
  389POPC   GL2 4660  10.262  13.009   7.153
  389POPC   C1A 4661  10.101  12.373   6.884
  389POPC   D2A 4662   9.881  12.354   6.436
  389POPC   C3A 4663   9.571  12.618   6.212
  389POPC   C4A 4664   9.327  12.895   5.805
  389POPC   C1B 4665  10.246  13.161   6.814
  389POPC   C2B 4666  10.248  13.332   6.439
  389POPC   C3B 4667  10.297  13.264   5.982
  389POPC   C4B 4668  10.454  13.137   5.479
  390POPC   NC3 4669  20.212  28.824   7.608
  390POPC   PO4 4670  20.238  28.764   7.214
  390POPC   GL1 4671  20.013  29.024   6.929
  390POPC   GL2 4672  19.971  28.783   6.733
  390POPC   C1A 4673  19.932  29.346   6.603
  390POPC   D2A 4674  19.983  29.225   6.122
  390POPC   C3A 4675  19.882  28.851   5.927
  390POPC   C4A 4676  19.973  28.363   6.020
  390POPC   C1B 4677  19.744  28.958   6.520
  390POPC   C2B 4678  19.450  29.064   6.207
  390POPC   C3B 4679  19.242  28.948   5.802
  390POPC   C4B 4680  19.043  28.792   5.407
  391POPC   NC3 4681  26.638  35.189   8.178
  391POPC   PO4 4682  26.579  35.161   7.788
  391POPC   GL1 4683  26.431  35.114   7.402
  391POPC   GL2 4684  26.208  35.050   7.452
  391POPC   C1A 4685  26.540  34.949   7.001
  391POPC   D2A 4686  26.454  34.919   6.524
  391POPC   C3A 4687  26.342  35.031   6.108
  391POPC   C4A 4688  26.187  35.094   5.623
  391POPC   C1B 4689  26.102  34.931   7.121
  391POPC   C2B 4690  26.036  34.686   6.792
  391POPC   C3B 4691  25.961  34.611   6.322
  391POPC   C4B 4692  25.766  34.437   5.876
  392POPC   NC3 4693  34.921  22.104   7.832
  392POPC   PO4 4694  34.507  22.133   7.958
  392POPC   GL1 4695  34.474  22.072   7.549
  392POPC   GL2 4696  34.657  22.291   7.474
  392POPC   C1A 4697  34.250  21.827   7.280
  392POPC   D2A 4698  33.875  21.711   6.972
  392POPC   C3A 4699  33.760  21.669   6.545
  392POPC   C4A 4700  33.632  21.662   6.038
  392POPC   C1B 4701  34.600  22.246   7.122
  392POPC   C2B 4702  34.568  22.212   6.734
  392POPC   C3B 4703  35.014  22.017   6.495
  392POPC   C4B 4704  35.251  21.801   6.186
  393POPC   NC3 4705  32.779  17.449   8.154
  393POPC   PO4 4706  32.634  17.743   7.942
  393POPC   GL1 4707  32.746  17.753   7.583
  393POPC   GL2 4708  33.007  17.735   7.551
  393POPC   C1A 4709  32.513  17.498   7.279
  393POPC   D2A 4710  32.555  17.344   6.780
  393POPC   C3A 4711  32.698  17.302   6.295
  393POPC   C4A 4712  32.990  17.312   5.956
  393POPC   C1B 4713  33.236  17.841   7.299
  393POPC   C2B 4714  33.472  17.598   7.080
  393POPC   C3B 4715  33.632  17.605   6.701
  393POPC   C4B 4716  33.915  17.696   6.333
  394POPC   NC3 4717  18.912   9.661   7.971
  394POPC   PO4 4718  18.891   9.904   7.697
  394POPC   GL1 4719  18.739   9.823   7.350
  394POPC   GL2 4720  18.510   9.937   7.338
  394POPC   C1A 4721  19.086   9.793   7.043
  394POPC   D2A 4722  19.197   9.510   6.619
  394POPC   C3A 4723  19.039   9.360   6.233
  394POPC   C4A 4724  18.958   9.193   5.826
  394POPC   C1B 4725  18.171   9.805   7.395
  394POPC   C2B 4726  17.818   9.657   7.192
  394POPC   C3B 4727  17.670   9.665   6.732
  394POPC   C4B 4728  17.420   9.849   6.340
  395POPC   NC3 4729  15.687   3.444   7.237
  395POPC   PO4 4730  15.943   3.798   7.251
  395POPC   GL1 4731  16.233   3.945   6.963
  395POPC   GL2 4732  16.455   3.784   7.064
  395POPC   C1A 4733  16.312   4.101   6.570
  395POPC   D2A 4734  16.439   4.006   6.082
  395POPC   C3A 4735  16.744   3.632   5.975
  395POPC   C4A 4736  16.644   3.259   5.664
  395POPC   C1B 4737  16.459   3.516   6.757
  395POPC   C2B 4738  16.364   3.581   6.359
  395POPC   C3B 4739  16.210   3.422   5.888
  395POPC   C4B 4740  15.750   3.212   5.759
  396POPC   NC3 4741   9.159  21.385   7.051
  396POPC   PO4 4742   9.002  21.029   6.952
  396POPC   GL1 4743   8.772  20.993   6.684
  396POPC   GL2 4744   8.645  21.247   6.630
  396POPC   C1A 4745   8.754  20.872   6.244
  396POPC   D2A 4746   8.826  20.711   5.773
  396POPC   C3A 4747   8.710  20.501   5.320
  396POPC   C4A 4748   8.353  20.421   5.046
  396POPC   C1B 4749   8.729  21.332   6.289
  396POPC   C2B 4750   8.919  21.256   5.939
  396POPC   C3B 4751   8.841  21.106   5.470
  396POPC   C4B 4752   8.831  20.918   5.045
  397POPC   NC3 4753  33.197  34.905   6.960
  397POPC   PO4 4754  32.983  34.974   7.270
  397POPC   GL1 4755  32.691  35.090   6.965
  397POPC   GL2 4756  32.874  35.321   6.931
  397POPC   C1A 4757  32.649  35.164   6.575
  397POPC   D2A 4758  32.735  35.204   6.125
  397POPC   C3A 4759  32.588  35.404   5.726
  397POPC   C4A 4760  32.385  35.672   5.336
  397POPC   C1B 4761  33.100  35.312   6.618
  397POPC   C2B 4762  33.253  35.488   6.285
  397POPC   C3B 4763  33.660  35.566   5.865
  397POPC   C4B 4764  33.650  35.580   5.368
  398POPC   NC3 4765  23.772  24.296   6.995
  398POPC   PO4 4766  24.097  24.455   7.173
  398POPC   GL1 4767  24.293  24.589   6.790
  398POPC   GL2 4768  24.386  24.801   6.930
  398POPC   C1A 4769  24.477  24.489   6.400
  398POPC   D2A 4770  24.132  24.618   6.088
  398POPC   C3A 4771  24.040  24.476   5.616
  398POPC   C4A 4772  24.287  24.093   5.422
  398POPC   C1B 4773  24.267  25.071   6.794
  398POPC   C2B 4774  24.038  24.996   6.470
  398POPC   C3B 4775  23.847  25.065   6.006
  398POPC   C4B 4776  24.067  25.155   5.570
  399POPC   NC3 4777   4.215  21.339   7.520
  399POPC   PO4 4778   4.519  21.534   7.691
  399POPC   GL1 4779   4.691  21.617   7.267
  399POPC   GL2 4780   4.509  21.454   7.175
  399POPC   C1A 4781   4.884  21.720   6.866
  399POPC   D2A 4782   4.888  21.814   6.392
  399POPC   C3A 4783   5.211  21.852   6.074
  399POPC   C4A 4784   5.268  22.261   5.818
  399POPC   C1B 4785   4.403  21.737   6.953
  399POPC   C2B 4786   4.440  21.773   6.513
  399POPC   C3B 4787   4.364  21.528   6.121
  399POPC   C4B 4788   3.958  21.298   5.874
  400POPC   NC3 4789  32.789  27.369   7.355
  400POPC   PO4 4790  32.680  27.683   7.628
  400POPC   GL1 4791  32.734  27.943   7.393
  400POPC   GL2 4792  32.468  28.111   7.456
  400POPC   C1A 4793  32.891  28.116   7.057
  400POPC   D2A 4794  32.842  28.261   6.569
  400POPC   C3A 4795  32.763  28.459   6.136
  400POPC   C4A 4796  32.489  28.867   5.905
  400POPC   C1B 4797  32.311  28.126   7.141
  400POPC   C2B 4798  32.305  28.300   6.729
  400POPC   C3B 4799  32.230  28.425   6.290
  400POPC   C4B 4800  32.141  28.497   5.794
  401POPC   NC3 4801  26.234  19.254   7.389
  401POPC   PO4 4802  25.956  19.501   7.366
  401POPC   GL1 4803  25.766  19.525   7.043
  401POPC   GL2 4804  25.929  19.375   6.849
  401POPC   C1A 4805  25.436  19.408   6.843
  401POPC   D2A 4806  25.433  19.459   6.375
  401POPC   C3A 4807  25.197  19.597   5.990
  401POPC   C4A 4808  24.868  19.569   5.653
  401POPC   C1B 4809  25.746  19.177   6.584
  401POPC   C2B 4810  25.650  19.011   6.197
  401POPC   C3B 4811  25.761  18.666   5.895
  401POPC   C4B 4812  25.954  18.302   5.610
  402POPC   NC3 4813  28.727  27.843   7.345
  402POPC   PO4 4814  28.711  27.473   7.283
  402POPC   GL1 4815  28.529  27.124   7.121
  402POPC   GL2 4816  28.824  27.005   7.175
  402POPC   C1A 4817  28.447  26.974   6.737
  402POPC   D2A 4818  28.472  27.048   6.214
  402POPC   C3A 4819  28.663  27.242   5.858
  402POPC   C4A 4820  28.993  27.242   5.554
  402POPC   C1B 4821  29.060  26.888   6.879
  402POPC   C2B 4822  29.227  26.912   6.563
  402POPC   C3B 4823  29.387  27.027   6.158
  402POPC   C4B 4824  29.431  27.169   5.693
  403POPC   NC3 4825  19.775  13.779   7.723
  403POPC   PO4 4826  20.040  13.576   7.501
  403POPC   GL1 4827  20.343  13.702   7.236
  403POPC   GL2 4828  20.095  13.724   7.090
  403POPC   C1A 4829  20.709  13.494   7.127
  403POPC   D2A 4830  20.752  13.236   6.651
  403POPC   C3A 4831  20.666  13.278   6.206
  403POPC   C4A 4832  20.855  13.341   5.759
  403POPC   C1B 4833  19.999  13.663   6.714
  403POPC   C2B 4834  19.885  13.436   6.344
  403POPC   C3B 4835  19.601  13.170   6.011
  403POPC   C4B 4836  19.478  12.960   5.584
  404POPC   NC3 4837  10.749  19.154   7.548
  404POPC   PO4 4838  10.614  18.791   7.452
  404POPC   GL1 4839  10.295  18.666   7.148
  404POPC   GL2 4840  10.465  18.802   6.915
  404POPC   C1A 4841  10.217  18.252   6.994
  404POPC   D2A 4842  10.103  17.788   7.031
  404POPC   C3A 4843   9.712  17.709   6.725
  404POPC   C4A 4844   9.260  17.777   6.582
  404POPC   C1B 4845  10.412  18.792   6.579
  404POPC   C2B 4846  10.358  18.845   6.190
  404POPC   C3B 4847  10.259  18.746   5.711
  404POPC   C4B 4848  10.267  18.673   5.174
  405POPC   NC3 4849   9.127   3.060   7.213
  405POPC   PO4 4850   9.043   3.344   6.994
  405POPC   GL1 4851   9.289   3.136   6.632
  405POPC   GL2 4852   9.289   2.932   6.826
  405POPC   C1A 4853   9.310   2.973   6.196
  405POPC   D2A 4854   9.197   2.940   5.736
  405POPC   C3A 4855   9.474   3.192   5.443
  405POPC   C4A 4856   9.645   3.206   5.020
  405POPC   C1B 4857   9.304   2.669   6.554
  405POPC   C2B 4858   9.114   2.415   6.365
  405POPC   C3B 4859   8.802   2.315   6.033
  405POPC   C4B 4860   8.810   2.166   5.546
  406POPC   NC3 4861  11.775  10.328   7.819
  406POPC   PO4 4862  12.053  10.126   7.623
  406POPC   GL1 4863  11.928  10.262   7.292
  406POPC   GL2 4864  11.745  10.037   7.160
  406POPC   C1A 4865  11.931  10.490   6.894
  406POPC   D2A 4866  12.037  10.430   6.387
  406POPC   C3A 4867  11.886  10.524   5.896
  406POPC   C4A 4868  11.753  10.684   5.415
  406POPC   C1B 4869  11.437  10.126   6.854
  406POPC   C2B 4870  11.193  10.040   6.528
  406POPC   C3B 4871  11.176  10.050   6.011
  406POPC   C4B 4872  11.103  10.111   5.474
  407POPC   NC3 4873   4.540   8.709   8.001
  407POPC   PO4 4874   4.313   8.934   7.806
  407POPC   GL1 4875   4.084   8.961   7.437
  407POPC   GL2 4876   4.005   9.286   7.451
  407POPC   C1A 4877   3.817   8.990   7.117
  407POPC   D2A 4878   3.609   8.869   6.620
  407POPC   C3A 4879   3.671   9.161   6.297
  407POPC   C4A 4880   3.502   9.441   5.903
  407POPC   C1B 4881   4.074   9.567   7.272
  407POPC   C2B 4882   3.983   9.871   7.041
  407POPC   C3B 4883   3.959  10.124   6.601
  407POPC   C4B 4884   3.968  10.142   6.099
  408POPC   NC3 4885  20.655  35.225   7.994
  408POPC   PO4 4886  20.575  35.624   7.965
  408POPC   GL1 4887  20.674  35.795   7.583
  408POPC   GL2 4888  20.364  35.792   7.576
  408POPC   C1A 4889  20.880  35.730   7.193
  408POPC   D2A 4890  21.032  35.936   6.787
  408POPC   C3A 4891  20.860  35.878   6.351
  408POPC   C4A 4892  20.799  35.762   5.861
  408POPC   C1B 4893  20.429  35.695   7.179
  408POPC   C2B 4894  20.585  35.531   6.758
  408POPC   C3B 4895  20.569  35.454   6.251
  408POPC   C4B 4896  20.390  35.420   5.790
  409POPC   NC3 4897  16.436  15.864   7.242
  409POPC   PO4 4898  16.625  16.032   7.504
  409POPC   GL1 4899  16.815  16.293   7.164
  409POPC   GL2 4900  16.685  16.087   6.908
  409POPC   C1A 4901  16.692  16.567   6.808
  409POPC   D2A 4902  16.715  16.640   6.350
  409POPC   C3A 4903  16.755  16.652   5.857
  409POPC   C4A 4904  16.760  16.978   5.527
  409POPC   C1B 4905  16.510  16.161   6.587
  409POPC   C2B 4906  16.321  16.159   6.276
  409POPC   C3B 4907  16.222  16.204   5.812
  409POPC   C4B 4908  16.098  16.110   5.324
  410POPC   NC3 4909   0.554  32.215   7.609
  410POPC   PO4 4910   0.539  31.828   7.612
  410POPC   GL1 4911   0.254  31.770   7.319
  410POPC   GL2 4912   0.422  31.541   7.154
  410POPC   C1A 4913  -0.020  31.822   7.027
  410POPC   D2A 4914  -0.094  31.988   6.564
  410POPC   C3A 4915  -0.107  31.939   6.137
  410POPC   C4A 4916   0.023  31.775   5.666
  410POPC   C1B 4917   0.337  31.705   6.829
  410POPC   C2B 4918   0.389  31.764   6.394
  410POPC   C3B 4919   0.493  31.839   5.971
  410POPC   C4B 4920   0.613  31.847   5.468
  411POPC   NC3 4921  25.857  33.941   7.796
  411POPC   PO4 4922  25.714  34.285   7.696
  411POPC   GL1 4923  25.965  34.522   7.430
  411POPC   GL2 4924  25.804  34.824   7.422
  411POPC   C1A 4925  26.312  34.416   7.122
  411POPC   D2A 4926  26.561  34.460   6.705
  411POPC   C3A 4927  26.438  34.497   6.231
  411POPC   C4A 4928  26.281  34.559   5.796
  411POPC   C1B 4929  25.634  34.798   7.130
  411POPC   C2B 4930  25.559  34.763   6.752
  411POPC   C3B 4931  25.459  34.787   6.254
  411POPC   C4B 4932  25.404  34.727   5.762
  412POPC   NC3 4933  30.464  31.045   8.073
  412POPC   PO4 4934  30.706  30.794   7.875
  412POPC   GL1 4935  30.754  30.807   7.522
  412POPC   GL2 4936  30.614  30.572   7.413
  412POPC   C1A 4937  30.972  31.082   7.245
  412POPC   D2A 4938  31.200  31.228   6.855
  412POPC   C3A 4939  31.381  31.216   6.386
  412POPC   C4A 4940  31.626  31.034   5.966
  412POPC   C1B 4941  30.839  30.301   7.312
  412POPC   C2B 4942  31.085  30.039   7.147
  412POPC   C3B 4943  31.119  30.035   6.664
  412POPC   C4B 4944  31.164  30.023   6.211
  413POPC   NC3 4945   3.117  25.129   7.477
  413POPC   PO4 4946   3.346  24.822   7.630
  413POPC   GL1 4947   3.549  24.438   7.401
  413POPC   GL2 4948   3.337  24.506   7.243
  413POPC   C1A 4949   3.986  24.424   7.317
  413POPC   D2A 4950   4.425  24.720   7.267
  413POPC   C3A 4951   4.731  24.756   6.872
  413POPC   C4A 4952   4.981  24.414   6.592
  413POPC   C1B 4953   3.225  24.573   6.900
  413POPC   C2B 4954   3.110  24.485   6.507
  413POPC   C3B 4955   2.810  24.137   6.256
  413POPC   C4B 4956   2.699  23.890   5.885
  414POPC   NC3 4957  22.206   4.627   6.930
  414POPC   PO4 4958  22.239   4.792   7.302
  414POPC   GL1 4959  22.590   4.753   7.163
  414POPC   GL2 4960  22.620   5.036   7.096
  414POPC   C1A 4961  22.807   4.494   7.012
  414POPC   D2A 4962  22.947   4.141   6.625
  414POPC   C3A 4963  23.052   3.894   6.233
  414POPC   C4A 4964  23.232   3.809   5.741
  414POPC   C1B 4965  22.460   5.116   6.753
  414POPC   C2B 4966  22.375   5.374   6.466
  414POPC   C3B 4967  22.317   5.667   6.142
  414POPC   C4B 4968  22.083   5.952   5.879
  415POPC   NC3 4969  11.481  26.370   7.140
  415POPC   PO4 4970  11.131  26.448   6.983
  415POPC   GL1 4971  11.202  26.336   6.551
  415POPC   GL2 4972  11.413  26.229   6.692
  415POPC   C1A 4973  11.187  26.316   6.153
  415POPC   D2A 4974  10.816  26.317   5.840
  415POPC   C3A 4975  10.777  26.130   5.370
  415POPC   C4A 4976  11.057  26.478   5.109
  415POPC   C1B 4977  11.572  26.204   6.358
  415POPC   C2B 4978  11.544  26.143   5.902
  415POPC   C3B 4979  11.318  26.146   5.491
  415POPC   C4B 4980  11.102  25.957   5.019
  416POPC   NC3 4981  15.180  15.979   7.839
  416POPC   PO4 4982  15.258  16.321   7.593
  416POPC   GL1 4983  15.261  16.429   7.183
  416POPC   GL2 4984  15.496  16.305   7.188
  416POPC   C1A 4985  15.079  16.441   6.810
  416POPC   D2A 4986  14.921  16.506   6.331
  416POPC   C3A 4987  14.780  16.310   5.960
  416POPC   C4A 4988  14.859  16.190   5.484
  416POPC   C1B 4989  15.547  16.246   6.820
  416POPC   C2B 4990  15.445  16.364   6.427
  416POPC   C3B 4991  15.298  16.311   5.947
  416POPC   C4B 4992  15.352  16.385   5.505
  417POPC   NC3 4993  17.216   0.058   8.026
  417POPC   PO4 4994  17.177  -0.125   7.681
  417POPC   GL1 4995  17.169   0.114   7.252
  417POPC   GL2 4996  17.393  -0.064   7.170
  417POPC   C1A 4997  16.975   0.281   6.908
  417POPC   D2A 4998  16.961   0.665   6.579
  417POPC   C3A 4999  17.137   1.012   6.382
  417POPC   C4A 5000  17.425   0.902   5.947
  417POPC   C1B 5001  17.450  -0.318   6.950
  417POPC   C2B 5002  17.416  -0.551   6.609
  417POPC   C3B 5003  17.360  -0.578   6.123
  417POPC   C4B 5004  17.354  -0.757   5.612
  418POPC   NC3 5005  29.684  28.793   7.394
  418POPC   PO4 5006  29.502  28.477   7.615
  418POPC   GL1 5007  29.408  28.432   7.201
  418POPC   GL2 5008  29.533  28.209   7.219
  418POPC   C1A 5009  29.484  28.523   6.776
  418POPC   D2A 5010  29.789  28.396   6.337
  418POPC   C3A 5011  29.817  28.479   5.901
  418POPC   C4A 5012  29.636  28.172   5.590
  418POPC   C1B 5013  29.776  28.254   6.932
  418POPC   C2B 5014  30.107  28.220   6.740
  418POPC   C3B 5015  30.497  28.204   6.471
  418POPC   C4B 5016  30.821  28.182   6.128
  419POPC   NC3 5017  32.553  35.446   7.283
  419POPC   PO4 5018  32.169  35.341   7.302
  419POPC   GL1 5019  32.041  35.363   6.883
  419POPC   GL2 5020  32.337  35.335   6.845
  419POPC   C1A 5021  31.809  35.069   6.633
  419POPC   D2A 5022  31.766  34.985   6.169
  419POPC   C3A 5023  31.908  34.858   5.714
  419POPC   C4A 5024  32.166  34.630   5.414
  419POPC   C1B 5025  32.266  35.323   6.451
  419POPC   C2B 5026  32.395  35.562   6.159
  419POPC   C3B 5027  32.456  35.906   5.771
  419POPC   C4B 5028  32.455  36.366   5.699
  420POPC   NC3 5029  25.717  19.088   7.218
  420POPC   PO4 5030  25.977  18.787   7.353
  420POPC   GL1 5031  26.171  18.510   7.046
  420POPC   GL2 5032  25.936  18.570   6.967
  420POPC   C1A 5033  26.497  18.614   6.621
  420POPC   D2A 5034  26.712  18.554   6.135
  420POPC   C3A 5035  26.688  18.290   5.816
  420POPC   C4A 5036  26.463  18.527   5.443
  420POPC   C1B 5037  26.021  18.746   6.581
  420POPC   C2B 5038  26.207  18.998   6.273
  420POPC   C3B 5039  26.212  19.193   5.820
  420POPC   C4B 5040  26.542  19.162   5.425
  421POPC   NC3 5041  29.137  19.376   7.322
  421POPC   PO4 5042  29.412  19.517   7.045
  421POPC   GL1 5043  29.430  19.327   6.726
  421POPC   GL2 5044  29.556  19.069   6.762
  421POPC   C1A 5045  29.263  19.463   6.393
  421POPC   D2A 5046  29.446  19.300   5.942
  421POPC   C3A 5047  29.280  19.192   5.513
  421POPC   C4A 5048  29.406  19.004   5.048
  421POPC   C1B 5049  29.589  18.975   6.432
  421POPC   C2B 5050  29.615  18.820   6.120
  421POPC   C3B 5051  29.623  18.606   5.690
  421POPC   C4B 5052  29.611  18.470   5.226
  422POPC   NC3 5053  28.604  30.212   7.631
  422POPC   PO4 5054  28.480  29.903   7.443
  422POPC   GL1 5055  28.487  29.998   6.992
  422POPC   GL2 5056  28.679  29.869   7.037
  422POPC   C1A 5057  28.394  29.850   6.580
  422POPC   D2A 5058  28.547  29.813   6.106
  422POPC   C3A 5059  28.475  29.637   5.654
  422POPC   C4A 5060  28.473  29.776   5.143
  422POPC   C1B 5061  28.738  29.577   6.796
  422POPC   C2B 5062  28.814  29.461   6.411
  422POPC   C3B 5063  28.908  29.343   5.943
  422POPC   C4B 5064  28.839  29.247   5.460
  423POPC   NC3 5065  34.120  34.473   7.195
  423POPC   PO4 5066  34.461  34.721   7.193
  423POPC   GL1 5067  34.470  34.515   6.856
  423POPC   GL2 5068  34.450  34.179   6.946
  423POPC   C1A 5069  34.597  34.580   6.457
  423POPC   D2A 5070  34.802  34.800   6.056
  423POPC   C3A 5071  35.067  34.908   5.793
  423POPC   C4A 5072  35.552  34.913   5.774
  423POPC   C1B 5073  34.403  34.048   6.577
  423POPC   C2B 5074  34.546  34.205   6.152
  423POPC   C3B 5075  34.547  34.439   5.762
  423POPC   C4B 5076  34.737  34.741   5.396
  424POPC   NC3 5077   0.778   7.256   7.979
  424POPC   PO4 5078   0.751   7.175   7.604
  424POPC   GL1 5079   0.908   7.290   7.213
  424POPC   GL2 5080   0.608   7.211   7.135
  424POPC   C1A 5081   0.933   7.589   6.847
  424POPC   D2A 5082   0.983   7.613   6.359
  424POPC   C3A 5083   0.820   7.744   5.874
  424POPC   C4A 5084   0.796   7.539   5.410
  424POPC   C1B 5085   0.495   7.343   6.819
  424POPC   C2B 5086   0.347   7.456   6.466
  424POPC   C3B 5087   0.390   7.504   6.011
  424POPC   C4B 5088   0.208   7.702   5.635
  425POPC   NC3 5089  29.921  11.336   7.751
  425POPC   PO4 5090  30.261  11.282   7.555
  425POPC   GL1 5091  30.418  11.406   7.158
  425POPC   GL2 5092  30.454  11.165   7.102
  425POPC   C1A 5093  30.297  11.730   6.940
  425POPC   D2A 5094  30.012  11.970   6.618
  425POPC   C3A 5095  29.992  11.921   6.190
  425POPC   C4A 5096  30.049  12.180   5.708
  425POPC   C1B 5097  30.238  11.164   6.811
  425POPC   C2B 5098  30.005  11.036   6.476
  425POPC   C3B 5099  29.852  10.898   6.033
  425POPC   C4B 5100  29.879  10.519   5.686
  426POPC   NC3 5101  11.397   7.653   7.551
  426POPC   PO4 5102  11.075   7.871   7.457
  426POPC   GL1 5103  11.034   7.876   7.067
  426POPC   GL2 5104  11.340   7.909   7.021
  426POPC   C1A 5105  10.822   8.010   6.660
  426POPC   D2A 5106  10.756   7.705   6.306
  426POPC   C3A 5107  10.994   7.605   5.927
  426POPC   C4A 5108  11.247   7.608   5.508
  426POPC   C1B 5109  11.266   7.862   6.673
  426POPC   C2B 5110  11.226   7.865   6.266
  426POPC   C3B 5111  11.505   7.891   5.870
  426POPC   C4B 5112  11.873   7.929   5.614
  427POPC   NC3 5113   5.170  12.442   7.527
  427POPC   PO4 5114   5.509  12.653   7.497
  427POPC   GL1 5115   5.457  12.964   7.309
  427POPC   GL2 5116   5.205  12.887   7.174
  427POPC   C1A 5117   5.765  13.210   7.182
  427POPC   D2A 5118   6.188  13.324   6.953
  427POPC   C3A 5119   6.242  13.582   6.567
  427POPC   C4A 5120   6.430  13.736   6.161
  427POPC   C1B 5121   5.136  12.820   6.795
  427POPC   C2B 5122   4.983  12.764   6.387
  427POPC   C3B 5123   5.301  12.878   5.984
  427POPC   C4B 5124   5.634  12.835   5.713
  428POPC   NC3 5125  10.609  14.365   8.020
  428POPC   PO4 5126  10.363  14.200   7.738
  428POPC   GL1 5127  10.507  14.060   7.333
  428POPC   GL2 5128  10.219  13.944   7.284
  428POPC   C1A 5129  10.522  14.198   6.930
  428POPC   D2A 5130  10.800  14.197   6.512
  428POPC   C3A 5131  10.688  14.187   6.043
  428POPC   C4A 5132  10.543  13.981   5.621
  428POPC   C1B 5133  10.153  13.847   6.948
  428POPC   C2B 5134  10.239  13.796   6.544
  428POPC   C3B 5135  10.406  13.766   6.151
  428POPC   C4B 5136  10.628  13.513   5.778
  429POPC   NC3 5137  17.746   6.555   7.577
  429POPC   PO4 5138  18.092   6.493   7.424
  429POPC   GL1 5139  17.896   6.466   7.037
  429POPC   GL2 5140  17.707   6.704   7.156
  429POPC   C1A 5141  17.778   6.290   6.617
  429POPC   D2A 5142  17.814   6.071   6.155
  429POPC   C3A 5143  17.993   6.162   5.731
  429POPC   C4A 5144  18.106   6.496   5.415
  429POPC   C1B 5145  17.421   6.775   6.959
  429POPC   C2B 5146  17.416   6.897   6.556
  429POPC   C3B 5147  17.375   6.853   6.036
  429POPC   C4B 5148  17.123   6.733   5.622
  430POPC   NC3 5149  11.720  33.428   7.903
  430POPC   PO4 5150  12.091  33.405   7.776
  430POPC   GL1 5151  12.304  33.395   7.384
  430POPC   GL2 5152  12.195  33.634   7.297
  430POPC   C1A 5153  12.325  33.174   7.001
  430POPC   D2A 5154  12.308  33.075   6.473
  430POPC   C3A 5155  12.004  33.343   6.149
  430POPC   C4A 5156  11.579  33.568   5.990
  430POPC   C1B 5157  12.373  33.931   7.109
  430POPC   C2B 5158  12.263  34.180   6.788
  430POPC   C3B 5159  12.400  34.457   6.394
  430POPC   C4B 5160  12.370  34.557   5.843
  431POPC   NC3 5161  12.575  15.434   7.582
  431POPC   PO4 5162  12.286  15.507   7.315
  431POPC   GL1 5163  12.377  15.490   6.920
  431POPC   GL2 5164  12.094  15.407   6.807
  431POPC   C1A 5165  12.436  15.768   6.566
  431POPC   D2A 5166  12.472  15.869   6.048
  431POPC   C3A 5167  12.344  15.901   5.586
  431POPC   C4A 5168  12.323  15.991   5.081
  431POPC   C1B 5169  12.135  15.121   6.655
  431POPC   C2B 5170  12.046  14.898   6.307
  431POPC   C3B 5171  11.692  14.913   6.055
  431POPC   C4B 5172  11.629  14.841   5.582
  432POPC   NC3 5173   1.881  32.623   7.913
  432POPC   PO4 5174   1.827  32.916   7.687
  432POPC   GL1 5175   1.696  32.875   7.355
  432POPC   GL2 5176   1.665  33.140   7.284
  432POPC   C1A 5177   2.028  32.853   7.075
  432POPC   D2A 5178   2.364  32.454   7.142
  432POPC   C3A 5179   2.440  32.415   6.637
  432POPC   C4A 5180   2.847  32.551   6.356
  432POPC   C1B 5181   1.678  33.038   6.892
  432POPC   C2B 5182   1.819  32.828   6.558
  432POPC   C3B 5183   2.145  32.682   6.216
  432POPC   C4B 5184   2.508  32.345   6.022
  433POPC   NC3 5185  15.279  13.357   7.794
  433POPC   PO4 5186  14.987  13.352   7.544
  433POPC   GL1 5187  15.140  13.429   7.107
  433POPC   GL2 5188  14.973  13.233   6.978
  433POPC   C1A 5189  15.508  13.431   6.987
  433POPC   D2A 5190  15.871  13.077   6.873
  433POPC   C3A 5191  15.902  13.030   6.465
  433POPC   C4A 5192  16.117  13.062   6.040
  433POPC   C1B 5193  14.952  13.203   6.610
  433POPC   C2B 5194  15.035  13.062   6.207
  433POPC   C3B 5195  14.937  12.853   5.786
  433POPC   C4B 5196  15.121  12.823   5.369
  434POPC   NC3 5197   3.408  27.559   7.403
  434POPC   PO4 5198   3.003  27.484   7.443
  434POPC   GL1 5199   3.063  27.409   7.069
  434POPC   GL2 5200   3.218  27.667   6.969
  434POPC   C1A 5201   2.698  27.366   6.807
  434POPC   D2A 5202   2.824  27.044   6.432
  434POPC   C3A 5203   3.142  27.300   6.230
  434POPC   C4A 5204   3.399  27.619   5.915
  434POPC   C1B 5205   3.269  27.612   6.617
  434POPC   C2B 5206   3.285  27.887   6.281
  434POPC   C3B 5207   3.503  28.131   6.024
  434POPC   C4B 5208   3.678  28.455   5.683
  435POPC   NC3 5209   6.977   3.214   7.273
  435POPC   PO4 5210   7.232   3.509   7.284
  435POPC   GL1 5211   7.162   3.777   7.015
  435POPC   GL2 5212   7.346   3.919   6.882
  435POPC   C1A 5213   6.859   3.527   6.756
  435POPC   D2A 5214   6.717   3.466   6.295
  435POPC   C3A 5215   6.636   3.496   5.856
  435POPC   C4A 5216   6.644   3.130   5.480
  435POPC   C1B 5217   7.314   3.773   6.517
  435POPC   C2B 5218   7.253   3.582   6.132
  435POPC   C3B 5219   7.095   3.446   5.682
  435POPC   C4B 5220   6.807   3.601   5.337
  436POPC   NC3 5221  31.119  13.206   7.781
  436POPC   PO4 5222  30.870  12.967   7.634
  436POPC   GL1 5223  31.116  12.957   7.278
  436POPC   GL2 5224  31.168  13.249   7.237
  436POPC   C1A 5225  31.059  12.687   6.935
  436POPC   D2A 5226  30.747  12.423   6.648
  436POPC   C3A 5227  30.247  12.392   6.637
  436POPC   C4A 5228  29.750  12.459   6.717
  436POPC   C1B 5229  31.467  13.411   7.028
  436POPC   C2B 5230  31.751  13.507   6.763
  436POPC   C3B 5231  31.744  13.561   6.279
  436POPC   C4B 5232  31.862  13.592   5.818
  437POPC   NC3 5233   3.749  30.118   7.592
  437POPC   PO4 5234   3.537  30.277   7.296
  437POPC   GL1 5235   3.643  30.022   6.911
  437POPC   GL2 5236   3.923  30.117   6.895
  437POPC   C1A 5237   3.457  30.054   6.521
  437POPC   D2A 5238   3.553  30.057   6.021
  437POPC   C3A 5239   3.790  30.172   5.612
  437POPC   C4A 5240   3.915  30.019   5.192
  437POPC   C1B 5241   3.928  30.147   6.551
  437POPC   C2B 5242   4.040  30.098   6.174
  437POPC   C3B 5243   4.352  30.120   5.801
  437POPC   C4B 5244   4.457  30.105   5.336
  438POPC   NC3 5245   7.005   6.696   7.076
  438POPC   PO4 5246   6.840   6.944   7.347
  438POPC   GL1 5247   6.710   7.291   7.018
  438POPC   GL2 5248   6.751   7.021   6.844
  438POPC   C1A 5249   6.504   7.237   6.539
  438POPC   D2A 5250   6.321   7.451   6.068
  438POPC   C3A 5251   6.342   7.898   5.839
  438POPC   C4A 5252   6.567   8.336   5.804
  438POPC   C1B 5253   6.923   6.969   6.504
  438POPC   C2B 5254   6.994   6.894   6.103
  438POPC   C3B 5255   7.035   6.839   5.635
  438POPC   C4B 5256   7.240   6.671   5.211
  439POPC   NC3 5257  29.927   1.548   7.725
  439POPC   PO4 5258  30.131   1.604   7.432
  439POPC   GL1 5259  30.230   1.544   7.032
  439POPC   GL2 5260  30.138   1.272   7.023
  439POPC   C1A 5261  30.078   1.840   6.854
  439POPC   D2A 5262  30.052   1.909   6.381
  439POPC   C3A 5263  30.023   1.937   5.906
  439POPC   C4A 5264  29.745   1.864   5.503
  439POPC   C1B 5265  30.182   1.301   6.634
  439POPC   C2B 5266  30.213   1.433   6.209
  439POPC   C3B 5267  30.030   1.469   5.742
  439POPC   C4B 5268  30.177   1.778   5.363
  440POPC   NC3 5269  34.983  11.429   7.229
  440POPC   PO4 5270  35.025  11.806   7.328
  440POPC   GL1 5271  34.848  12.132   7.212
  440POPC   GL2 5272  35.076  12.212   7.210
  440POPC   C1A 5273  34.646  12.359   6.837
  440POPC   D2A 5274  34.221  12.455   6.536
  440POPC   C3A 5275  34.357  12.586   6.100
  440POPC   C4A 5276  34.395  12.623   5.629
  440POPC   C1B 5277  35.121  12.240   6.849
  440POPC   C2B 5278  35.020  12.180   6.438
  440POPC   C3B 5279  34.992  11.961   5.993
  440POPC   C4B 5280  34.968  11.711   5.607
  441POPC   NC3 5281  19.514   3.015   7.288
  441POPC   PO4 5282  19.289   3.281   7.452
  441POPC   GL1 5283  19.070   3.321   7.087
  441POPC   GL2 5284  19.172   3.586   7.141
  441POPC   C1A 5285  18.624   3.195   7.034
  441POPC   D2A 5286  18.351   3.514   6.739
  441POPC   C3A 5287  18.140   3.617   6.379
  441POPC   C4A 5288  17.730   3.851   6.186
  441POPC   C1B 5289  19.195   3.837   6.867
  441POPC   C2B 5290  18.968   4.144   6.686
  441POPC   C3B 5291  18.743   4.399   6.258
  441POPC   C4B 5292  18.318   4.077   6.084
  442POPC   NC3 5293   7.903  10.653   7.126
  442POPC   PO4 5294   7.614  10.474   7.018
  442POPC   GL1 5295   7.516  10.555   6.610
  442POPC   GL2 5296   7.260  10.481   6.527
  442POPC   C1A 5297   7.532  10.650   6.225
  442POPC   D2A 5298   7.192  10.483   5.917
  442POPC   C3A 5299   7.008  10.733   5.570
  442POPC   C4A 5300   6.842  10.847   5.178
  442POPC   C1B 5301   7.081  10.709   6.276
  442POPC   C2B 5302   6.833  10.975   6.045
  442POPC   C3B 5303   6.727  11.187   5.670
  442POPC   C4B 5304   6.488  11.548   5.484
  443POPC   NC3 5305   8.426   4.165   7.357
  443POPC   PO4 5306   8.457   3.893   7.046
  443POPC   GL1 5307   8.183   3.655   6.958
  443POPC   GL2 5308   7.937   3.842   6.889
  443POPC   C1A 5309   8.163   3.403   6.584
  443POPC   D2A 5310   8.256   3.462   6.058
  443POPC   C3A 5311   8.163   3.739   5.739
  443POPC   C4A 5312   8.228   3.460   5.393
  443POPC   C1B 5313   7.794   3.712   6.543
  443POPC   C2B 5314   7.778   3.630   6.158
  443POPC   C3B 5315   7.604   3.460   5.738
  443POPC   C4B 5316   7.475   2.989   5.652
  444POPC   NC3 5317  26.303  33.604   7.409
  444POPC   PO4 5318  25.953  33.488   7.367
  444POPC   GL1 5319  26.042  33.352   6.991
  444POPC   GL2 5320  25.826  33.124   7.107
  444POPC   C1A 5321  25.908  33.386   6.576
  444POPC   D2A 5322  25.963  33.420   6.081
  444POPC   C3A 5323  25.991  33.449   5.623
  444POPC   C4A 5324  25.930  33.720   5.280
  444POPC   C1B 5325  25.696  33.045   6.793
  444POPC   C2B 5326  25.545  33.064   6.377
  444POPC   C3B 5327  25.577  32.988   5.895
  444POPC   C4B 5328  25.464  32.656   5.528
  445POPC   NC3 5329  15.861   7.174   7.682
  445POPC   PO4 5330  15.895   6.794   7.810
  445POPC   GL1 5331  15.798   6.508   7.489
  445POPC   GL2 5332  16.023   6.634   7.357
  445POPC   C1A 5333  15.551   6.309   7.144
  445POPC   D2A 5334  15.409   6.064   6.755
  445POPC   C3A 5335  15.521   5.597   6.858
  445POPC   C4A 5336  15.635   5.444   7.309
  445POPC   C1B 5337  15.973   6.447   7.040
  445POPC   C2B 5338  15.852   6.367   6.652
  445POPC   C3B 5339  15.688   6.387   6.193
  445POPC   C4B 5340  15.680   6.512   5.691
  446POPC   NC3 5341  23.306   1.599   7.746
  446POPC   PO4 5342  23.698   1.485   7.624
  446POPC   GL1 5343  23.872   1.650   7.255
  446POPC   GL2 5344  24.087   1.560   7.196
  446POPC   C1A 5345  23.606   1.769   6.900
  446POPC   D2A 5346  23.720   1.648   6.447
  446POPC   C3A 5347  23.852   1.712   6.024
  446POPC   C4A 5348  23.980   1.595   5.525
  446POPC   C1B 5349  24.097   1.581   6.804
  446POPC   C2B 5350  24.374   1.657   6.536
  446POPC   C3B 5351  24.359   1.717   6.090
  446POPC   C4B 5352  24.502   1.713   5.591
  447POPC   NC3 5353  14.682  25.104   7.474
  447POPC   PO4 5354  14.375  25.230   7.259
  447POPC   GL1 5355  14.534  25.481   6.846
  447POPC   GL2 5356  14.715  25.653   6.953
  447POPC   C1A 5357  14.529  25.345   6.371
  447POPC   D2A 5358  14.627  25.251   5.918
  447POPC   C3A 5359  15.037  25.407   5.702
  447POPC   C4A 5360  15.374  25.708   5.458
  447POPC   C1B 5361  14.729  25.792   6.600
  447POPC   C2B 5362  14.755  25.766   6.196
  447POPC   C3B 5363  14.547  25.783   5.801
  447POPC   C4B 5364  14.381  26.157   5.516
  448POPC   NC3 5365  17.638  24.364   7.899
  448POPC   PO4 5366  17.614  24.153   7.575
  448POPC   GL1 5367  17.576  24.247   7.165
  448POPC   GL2 5368  17.262  24.152   7.190
  448POPC   C1A 5369  17.609  24.418   6.766
  448POPC   D2A 5370  17.707  24.392   6.228
  448POPC   C3A 5371  17.712  24.386   5.777
  448POPC   C4A 5372  18.050  24.281   5.445
  448POPC   C1B 5373  17.075  24.269   6.896
  448POPC   C2B 5374  17.167  24.346   6.511
  448POPC   C3B 5375  17.249  24.527   6.045
  448POPC   C4B 5376  17.157  24.564   5.537
  449POPC   NC3 5377   9.568  19.633   7.518
  449POPC   PO4 5378   9.594  20.038   7.455
  449POPC   GL1 5379   9.600  20.293   7.069
  449POPC   GL2 5380   9.696  20.514   7.137
  449POPC   C1A 5381   9.659  20.211   6.622
  449POPC   D2A 5382   9.619  20.161   6.103
  449POPC   C3A 5383   9.568  19.977   5.693
  449POPC   C4A 5384   9.324  19.800   5.350
  449POPC   C1B 5385   9.720  20.613   6.781
  449POPC   C2B 5386   9.833  20.686   6.456
  449POPC   C3B 5387   9.769  20.633   5.990
  449POPC   C4B 5388   9.796  20.503   5.503
  450POPC   NC3 5389  17.757  18.223   7.939
  450POPC   PO4 5390  18.023  17.965   8.050
  450POPC   GL1 5391  17.923  17.763   7.682
  450POPC   GL2 5392  18.083  17.941   7.544
  450POPC   C1A 5393  17.715  17.682   7.284
  450POPC   D2A 5394  17.788  17.338   6.919
  450POPC   C3A 5395  17.841  17.232   6.452
  450POPC   C4A 5396  17.795  16.975   6.029
  450POPC   C1B 5397  18.124  17.895   7.149
  450POPC   C2B 5398  17.952  17.859   6.780
  450POPC   C3B 5399  18.019  17.757   6.299
  450POPC   C4B 5400  18.006  17.457   5.888
  451POPC   NC3 5401  33.946  23.694   7.818
  451POPC   PO4 5402  34.157  24.031   7.750
  451POPC   GL1 5403  34.077  24.189   7.381
  451POPC   GL2 5404  33.913  24.365   7.409
  451POPC   C1A 5405  34.248  24.316   6.997
  451POPC   D2A 5406  34.123  24.200   6.526
  451POPC   C3A 5407  34.406  24.262   6.159
  451POPC   C4A 5408  34.642  24.363   5.785
  451POPC   C1B 5409  33.923  24.575   7.127
  451POPC   C2B 5410  33.954  24.620   6.750
  451POPC   C3B 5411  34.024  24.609   6.265
  451POPC   C4B 5412  34.211  24.611   5.827
  452POPC   NC3 5413  13.005  33.468   7.844
  452POPC   PO4 5414  13.374  33.576   7.799
  452POPC   GL1 5415  13.515  33.557   7.444
  452POPC   GL2 5416  13.228  33.558   7.347
  452POPC   C1A 5417  13.761  33.241   7.243
  452POPC   D2A 5418  13.945  33.208   6.736
  452POPC   C3A 5419  13.982  32.750   6.670
  452POPC   C4A 5420  14.035  32.461   7.044
  452POPC   C1B 5421  13.178  33.557   6.971
  452POPC   C2B 5422  13.230  33.792   6.629
  452POPC   C3B 5423  13.258  34.000   6.210
  452POPC   C4B 5424  13.358  34.322   5.882
  453POPC   NC3 5425  13.967   5.200   8.006
  453POPC   PO4 5426  13.614   5.373   7.837
  453POPC   GL1 5427  13.681   5.361   7.413
  453POPC   GL2 5428  13.852   5.564   7.407
  453POPC   C1A 5429  13.422   5.332   7.081
  453POPC   D2A 5430  13.378   5.272   6.563
  453POPC   C3A 5431  13.735   5.388   6.186
  453POPC   C4A 5432  13.796   5.521   5.770
  453POPC   C1B 5433  14.015   5.499   7.072
  453POPC   C2B 5434  14.237   5.461   6.792
  453POPC   C3B 5435  14.616   5.545   6.456
  453POPC   C4B 5436  15.052   5.297   6.429
  454POPC   NC3 5437   5.722   1.235   7.355
  454POPC   PO4 5438   6.064   1.127   7.498
  454POPC   GL1 5439   6.228   0.737   7.348
  454POPC   GL2 5440   5.946   0.694   7.270
  454POPC   C1A 5441   6.364   0.515   7.015
  454POPC   D2A 5442   6.798   0.676   6.918
  454POPC   C3A 5443   7.005   0.923   6.536
  454POPC   C4A 5444   7.074   0.762   6.095
  454POPC   C1B 5445   5.884   0.461   7.007
  454POPC   C2B 5446   5.815   0.279   6.667
  454POPC   C3B 5447   5.698   0.416   6.181
  454POPC   C4B 5448   5.712   0.534   5.748
  455POPC   NC3 5449   6.108  19.857   7.883
  455POPC   PO4 5450   6.222  19.851   7.467
  455POPC   GL1 5451   5.976  19.961   7.110
  455POPC   GL2 5452   5.937  19.749   7.025
  455POPC   C1A 5453   6.166  20.273   6.883
  455POPC   D2A 5454   6.336  20.531   6.469
  455POPC   C3A 5455   6.297  20.714   6.124
  455POPC   C4A 5456   6.090  20.818   5.707
  455POPC   C1B 5457   6.096  19.803   6.683
  455POPC   C2B 5458   6.286  19.864   6.332
  455POPC   C3B 5459   6.021  19.882   5.848
  455POPC   C4B 5460   5.508  20.017   5.748
  456POPC   NC3 5461  11.031  20.069   6.898
  456POPC   PO4 5462  11.309  19.892   7.080
  456POPC   GL1 5463  11.587  19.696   6.803
  456POPC   GL2 5464  11.407  19.635   6.571
  456POPC   C1A 5465  11.851  19.922   6.590
  456POPC   D2A 5466  11.896  19.825   6.081
  456POPC   C3A 5467  11.714  19.972   5.640
  456POPC   C4A 5468  11.436  19.723   5.314
  456POPC   C1B 5469  11.485  19.631   6.202
  456POPC   C2B 5470  11.577  19.490   5.832
  456POPC   C3B 5471  11.758  19.228   5.472
  456POPC   C4B 5472  12.016  19.131   5.115
  457POPC   NC3 5473   1.529  18.837   7.470
  457POPC   PO4 5474   1.170  18.947   7.604
  457POPC   GL1 5475   0.885  19.091   7.372
  457POPC   GL2 5476   0.782  18.798   7.384
  457POPC   C1A 5477   0.824  19.125   6.911
  457POPC   D2A 5478   0.839  19.251   6.440
  457POPC   C3A 5479   0.693  19.549   6.061
  457POPC   C4A 5480   0.316  19.754   5.831
  457POPC   C1B 5481   0.590  18.637   7.122
  457POPC   C2B 5482   0.451  18.737   6.700
  457POPC   C3B 5483   0.482  18.931   6.332
  457POPC   C4B 5484   0.691  19.019   5.857
  458POPC   NC3 5485   2.538  24.695   7.899
  458POPC   PO4 5486   2.617  24.295   7.798
  458POPC   GL1 5487   2.397  24.415   7.448
  458POPC   GL2 5488   2.330  24.663   7.464
  458POPC   C1A 5489   2.221  24.274   7.058
  458POPC   D2A 5490   2.109  24.191   6.572
  458POPC   C3A 5491   2.010  24.677   6.545
  458POPC   C4A 5492   1.571  24.680   6.394
  458POPC   C1B 5493   2.212  24.819   7.167
  458POPC   C2B 5494   2.330  24.890   6.791
  458POPC   C3B 5495   2.452  24.969   6.310
  458POPC   C4B 5496   2.627  25.007   5.809
  459POPC   NC3 5497  26.556   4.605   7.609
  459POPC   PO4 5498  26.866   4.835   7.658
  459POPC   GL1 5499  27.022   4.867   7.250
  459POPC   GL2 5500  27.238   4.626   7.295
  459POPC   C1A 5501  26.835   4.911   6.869
  459POPC   D2A 5502  26.837   4.846   6.411
  459POPC   C3A 5503  27.036   4.644   6.040
  459POPC   C4A 5504  27.137   4.709   5.537
  459POPC   C1B 5505  27.494   4.465   7.106
  459POPC   C2B 5506  27.713   4.131   7.050
  459POPC   C3B 5507  27.842   4.218   6.567
  459POPC   C4B 5508  27.999   4.506   6.115
  460POPC   NC3 5509  34.079  12.101   7.472
  460POPC   PO4 5510  34.457  11.980   7.400
  460POPC   GL1 5511  34.558  11.725   6.979
  460POPC   GL2 5512  34.625  11.938   6.901
  460POPC   C1A 5513  34.450  11.516   6.619
  460POPC   D2A 5514  34.134  11.242   6.285
  460POPC   C3A 5515  34.370  11.053   5.899
  460POPC   C4A 5516  34.329  10.655   5.654
  460POPC   C1B 5517  34.470  12.024   6.562
  460POPC   C2B 5518  34.584  12.187   6.172
  460POPC   C3B 5519  34.896  12.433   5.921
  460POPC   C4B 5520  35.340  12.330   6.038
  461POPC   NC3 5521  22.735  27.021   7.446
  461POPC   PO4 5522  22.973  26.720   7.294
  461POPC   GL1 5523  22.902  26.470   6.981
  461POPC   GL2 5524  22.556  26.520   6.996
  461POPC   C1A 5525  23.168  26.450   6.626
  461POPC   D2A 5526  23.033  26.321   6.209
  461POPC   C3A 5527  22.804  26.505   5.860
  461POPC   C4A 5528  22.508  26.727   5.650
  461POPC   C1B 5529  22.516  26.511   6.675
  461POPC   C2B 5530  22.745  26.687   6.411
  461POPC   C3B 5531  22.940  26.911   6.135
  461POPC   C4B 5532  22.957  26.951   5.659
  462POPC   NC3 5533  24.992   2.824   7.824
  462POPC   PO4 5534  25.107   3.058   7.557
  462POPC   GL1 5535  25.287   2.962   7.212
  462POPC   GL2 5536  25.300   3.213   7.115
  462POPC   C1A 5537  25.254   2.564   6.932
  462POPC   D2A 5538  25.138   2.280   6.477
  462POPC   C3A 5539  25.190   1.847   6.541
  462POPC   C4A 5540  25.343   1.371   6.466
  462POPC   C1B 5541  25.465   3.359   6.847
  462POPC   C2B 5542  25.400   3.261   6.475
  462POPC   C3B 5543  25.235   3.098   6.085
  462POPC   C4B 5544  24.963   2.775   5.713
  463POPC   NC3 5545  27.891  13.151   7.547
  463POPC   PO4 5546  27.876  13.536   7.682
  463POPC   GL1 5547  27.868  13.605   7.307
  463POPC   GL2 5548  27.667  13.859   7.348
  463POPC   C1A 5549  27.848  13.482   6.845
  463POPC   D2A 5550  27.700  13.453   6.396
  463POPC   C3A 5551  27.653  13.698   6.002
  463POPC   C4A 5552  27.937  13.776   5.649
  463POPC   C1B 5553  27.789  13.948   7.020
  463POPC   C2B 5554  27.876  13.961   6.603
  463POPC   C3B 5555  28.065  13.976   6.227
  463POPC   C4B 5556  28.305  14.211   5.827
  464POPC   NC3 5557   9.554  22.994   6.824
  464POPC   PO4 5558   9.154  23.049   6.861
  464POPC   GL1 5559   9.136  23.099   6.388
  464POPC   GL2 5560   8.927  23.335   6.495
  464POPC   C1A 5561   9.160  22.963   6.012
  464POPC   D2A 5562   9.242  22.760   5.553
  464POPC   C3A 5563   9.189  22.675   5.121
  464POPC   C4A 5564   9.292  22.235   4.773
  464POPC   C1B 5565   8.613  23.224   6.455
  464POPC   C2B 5566   8.395  23.137   6.091
  464POPC   C3B 5567   8.172  22.893   5.738
  464POPC   C4B 5568   7.811  22.754   5.457
  465POPC   NC3 5569   0.850  19.982   8.198
  465POPC   PO4 5570   0.667  20.202   7.922
  465POPC   GL1 5571   0.821  20.276   7.423
  465POPC   GL2 5572   0.712  20.046   7.456
  465POPC   C1A 5573   0.538  20.393   7.113
  465POPC   D2A 5574   0.202  20.513   6.729
  465POPC   C3A 5575  -0.057  20.279   6.440
  465POPC   C4A 5576  -0.182  20.056   5.990
  465POPC   C1B 5577   0.655  19.987   7.089
  465POPC   C2B 5578   0.603  20.133   6.675
  465POPC   C3B 5579   0.707  20.315   6.287
  465POPC   C4B 5580   0.862  20.614   5.895
  466POPC   NC3 5581   1.013  14.808   8.252
  466POPC   PO4 5582   1.025  14.403   8.275
  466POPC   GL1 5583   1.005  14.362   7.870
  466POPC   GL2 5584   1.202  14.233   7.789
  466POPC   C1A 5585   0.906  14.597   7.500
  466POPC   D2A 5586   1.071  14.493   7.040
  466POPC   C3A 5587   1.158  14.773   6.660
  466POPC   C4A 5588   1.392  14.957   6.332
  466POPC   C1B 5589   1.189  14.016   7.531
  466POPC   C2B 5590   1.307  13.993   7.117
  466POPC   C3B 5591   1.242  13.961   6.649
  466POPC   C4B 5592   0.973  13.899   6.184
  467POPC   NC3 5593   2.542  21.511   8.008
  467POPC   PO4 5594   2.732  21.626   7.671
  467POPC   GL1 5595   2.615  22.076   7.489
  467POPC   GL2 5596   2.905  22.191   7.403
  467POPC   C1A 5597   2.419  22.079   7.057
  467POPC   D2A 5598   2.005  22.274   6.828
  467POPC   C3A 5599   1.880  21.958   6.461
  467POPC   C4A 5600   1.740  21.889   5.982
  467POPC   C1B 5601   2.867  22.217   7.072
  467POPC   C2B 5602   2.750  22.276   6.729
  467POPC   C3B 5603   2.765  22.385   6.225
  467POPC   C4B 5604   2.682  22.323   5.716
  468POPC   NC3 5605  12.564  34.943   7.467
  468POPC   PO4 5606  12.765  34.655   7.288
  468POPC   GL1 5607  12.613  34.522   6.905
  468POPC   GL2 5608  12.735  34.836   6.761
  468POPC   C1A 5609  12.735  34.184   6.598
  468POPC   D2A 5610  12.686  33.826   6.285
  468POPC   C3A 5611  13.017  33.587   6.099
  468POPC   C4A 5612  13.222  33.392   5.761
  468POPC   C1B 5613  12.759  34.803   6.381
  468POPC   C2B 5614  12.760  34.844   5.951
  468POPC   C3B 5615  12.693  34.843   5.527
  468POPC   C4B 5616  12.416  34.825   5.102
  469POPC   NC3 5617  27.266  28.811   7.242
  469POPC   PO4 5618  27.214  29.001   6.892
  469POPC   GL1 5619  27.124  28.861   6.510
  469POPC   GL2 5620  26.901  29.025   6.565
  469POPC   C1A 5621  26.993  28.576   6.213
  469POPC   D2A 5622  27.307  28.309   5.911
  469POPC   C3A 5623  27.367  28.201   5.441
  469POPC   C4A 5624  27.128  27.968   5.052
  469POPC   C1B 5625  26.857  29.062   6.181
  469POPC   C2B 5626  26.843  29.027   5.765
  469POPC   C3B 5627  26.895  28.569   5.675
  469POPC   C4B 5628  26.917  28.465   5.142
  470POPC   NC3 5629  21.137  25.078   7.455
  470POPC   PO4 5630  20.795  25.249   7.570
  470POPC   GL1 5631  20.522  25.100   7.260
  470POPC   GL2 5632  20.721  25.007   7.059
  470POPC   C1A 5633  20.260  25.197   6.955
  470POPC   D2A 5634  20.011  25.143   6.500
  470POPC   C3A 5635  20.180  24.698   6.269
  470POPC   C4A 5636  20.368  24.586   5.806
  470POPC   C1B 5637  20.458  24.685   6.997
  470POPC   C2B 5638  20.127  24.634   6.789
  470POPC   C3B 5639  19.758  24.590   6.488
  470POPC   C4B 5640  19.945  24.283   6.128
  471POPC   NC3 5641  34.267  26.359   7.735
  471POPC   PO4 5642  34.467  26.411   7.405
  471POPC   GL1 5643  34.798  26.375   7.201
  471POPC   GL2 5644  34.643  26.101   7.153
  471POPC   C1A 5645  35.096  26.189   6.840
  471POPC   D2A 5646  34.818  25.968   6.417
  471POPC   C3A 5647  34.555  25.762   6.109
  471POPC   C4A 5648  34.331  25.658   5.718
  471POPC   C1B 5649  34.546  26.075   6.811
  471POPC   C2B 5650  34.302  26.073   6.452
  471POPC   C3B 5651  34.132  26.103   6.005
  471POPC   C4B 5652  33.987  26.486   5.811
  472POPC   NC3 5653  20.998  22.337   7.888
  472POPC   PO4 5654  20.668  22.129   7.930
  472POPC   GL1 5655  20.496  22.145   7.601
  472POPC   GL2 5656  20.627  21.907   7.492
  472POPC   C1A 5657  20.297  22.422   7.198
  472POPC   D2A 5658  20.322  22.565   6.722
  472POPC   C3A 5659  20.403  22.364   6.349
  472POPC   C4A 5660  20.544  22.303   5.912
  472POPC   C1B 5661  20.544  22.020   7.135
  472POPC   C2B 5662  20.522  22.059   6.713
  472POPC   C3B 5663  20.484  21.833   6.361
  472POPC   C4B 5664  20.429  21.445   6.068
  473POPC   NC3 5665   3.324  34.118   7.681
  473POPC   PO4 5666   2.942  34.269   7.568
  473POPC   GL1 5667   2.696  34.197   7.173
  473POPC   GL2 5668   2.906  34.398   6.931
  473POPC   C1A 5669   2.648  33.921   6.859
  473POPC   D2A 5670   2.746  33.804   6.387
  473POPC   C3A 5671   3.028  33.903   5.914
  473POPC   C4A 5672   3.150  33.824   5.439
  473POPC   C1B 5673   2.848  34.273   6.620
  473POPC   C2B 5674   3.045  34.341   6.228
  473POPC   C3B 5675   3.389  34.325   5.902
  473POPC   C4B 5676   3.516  34.177   5.404
  474POPC   NC3 5677  16.657  29.031   7.655
  474POPC   PO4 5678  16.743  29.391   7.469
  474POPC   GL1 5679  16.695  29.372   7.127
  474POPC   GL2 5680  16.429  29.265   6.999
  474POPC   C1A 5681  16.855  29.556   6.697
  474POPC   D2A 5682  17.012  29.707   6.251
  474POPC   C3A 5683  16.975  29.598   5.722
  474POPC   C4A 5684  16.882  29.775   5.290
  474POPC   C1B 5685  16.413  29.097   6.660
  474POPC   C2B 5686  16.193  29.059   6.297
  474POPC   C3B 5687  15.880  29.191   5.971
  474POPC   C4B 5688  15.679  28.948   5.575
  475POPC   NC3 5689  15.627   9.551   8.263
  475POPC   PO4 5690  15.500   9.583   7.883
  475POPC   GL1 5691  15.717   9.338   7.508
  475POPC   GL2 5692  15.750   9.624   7.459
  475POPC   C1A 5693  15.604   9.170   7.117
  475POPC   D2A 5694  15.492   9.001   6.694
  475POPC   C3A 5695  15.794   8.901   6.318
  475POPC   C4A 5696  15.766   8.633   5.901
  475POPC   C1B 5697  15.513   9.818   7.228
  475POPC   C2B 5698  15.295  10.116   7.106
  475POPC   C3B 5699  15.084  10.130   6.696
  475POPC   C4B 5700  14.807   9.951   6.305
  476POPC   NC3 5701   0.822  23.453   7.895
  476POPC   PO4 5702   0.955  23.078   7.741
  476POPC   GL1 5703   0.822  23.146   7.340
  476POPC   GL2 5704   0.793  23.453   7.405
  476POPC   C1A 5705   0.800  23.123   6.862
  476POPC   D2A 5706   0.991  23.366   6.455
  476POPC   C3A 5707   1.126  23.370   5.967
  476POPC   C4A 5708   1.278  23.589   5.526
  476POPC   C1B 5709   0.760  23.574   7.079
  476POPC   C2B 5710   0.562  23.627   6.707
  476POPC   C3B 5711   0.260  23.944   6.397
  476POPC   C4B 5712   0.148  24.154   6.010
  477POPC   NC3 5713  34.926  13.766   7.673
  477POPC   PO4 5714  34.883  14.107   7.830
  477POPC   GL1 5715  34.770  14.250   7.477
  477POPC   GL2 5716  35.018  14.150   7.361
  477POPC   C1A 5717  34.481  14.455   7.181
  477POPC   D2A 5718  34.469  14.664   6.706
  477POPC   C3A 5719  34.626  15.021   6.428
  477POPC   C4A 5720  34.897  15.203   6.071
  477POPC   C1B 5721  34.891  14.121   7.016
  477POPC   C2B 5722  34.769  14.243   6.619
  477POPC   C3B 5723  34.803  14.530   6.186
  477POPC   C4B 5724  34.874  14.767   5.739
  478POPC   NC3 5725  21.948   9.306   7.553
  478POPC   PO4 5726  22.358   9.346   7.562
  478POPC   GL1 5727  22.455   9.537   7.178
  478POPC   GL2 5728  22.150   9.477   7.172
  478POPC   C1A 5729  22.610   9.419   6.807
  478POPC   D2A 5730  22.321   9.605   6.462
  478POPC   C3A 5731  22.579   9.495   6.097
  478POPC   C4A 5732  22.694   9.238   5.733
  478POPC   C1B 5733  22.064   9.471   6.843
  478POPC   C2B 5734  21.907   9.349   6.472
  478POPC   C3B 5735  21.741   9.243   6.034
  478POPC   C4B 5736  21.571   9.544   5.679
  479POPC   NC3 5737  31.663  17.775   7.110
  479POPC   PO4 5738  31.277  17.642   7.192
  479POPC   GL1 5739  31.149  17.263   7.020
  479POPC   GL2 5740  31.475  17.264   6.999
  479POPC   C1A 5741  30.874  17.286   6.625
  479POPC   D2A 5742  30.444  17.415   6.403
  479POPC   C3A 5743  30.463  17.333   5.919
  479POPC   C4A 5744  30.443  17.444   5.408
  479POPC   C1B 5745  31.701  17.452   6.826
  479POPC   C2B 5746  31.695  17.602   6.442
  479POPC   C3B 5747  31.727  17.669   5.995
  479POPC   C4B 5748  31.712  17.776   5.455
  480POPC   NC3 5749  17.325   6.130   8.193
  480POPC   PO4 5750  17.663   6.115   7.935
  480POPC   GL1 5751  17.563   6.095   7.574
  480POPC   GL2 5752  17.277   6.120   7.646
  480POPC   C1A 5753  17.563   5.825   7.250
  480POPC   D2A 5754  17.537   5.549   6.817
  480POPC   C3A 5755  17.447   5.212   6.429
  480POPC   C4A 5756  17.451   5.069   5.980
  480POPC   C1B 5757  17.079   5.830   7.422
  480POPC   C2B 5758  17.019   5.760   7.049
  480POPC   C3B 5759  16.979   5.642   6.605
  480POPC   C4B 5760  17.084   5.522   6.198
  481POPC   NC3 5761  32.195  15.410   7.818
  481POPC   PO4 5762  31.893  15.233   7.622
  481POPC   GL1 5763  32.056  15.232   7.203
  481POPC   GL2 5764  32.324  15.315   7.341
  481POPC   C1A 5765  31.989  15.072   6.767
  481POPC   D2A 5766  32.106  14.711   6.436
  481POPC   C3A 5767  32.267  14.544   6.044
  481POPC   C4A 5768  32.114  14.641   5.530
  481POPC   C1B 5769  32.445  15.222   6.998
  481POPC   C2B 5770  32.441  15.134   6.603
  481POPC   C3B 5771  32.413  14.975   6.149
  481POPC   C4B 5772  32.496  14.897   5.678
  482POPC   NC3 5773  12.894  35.699   6.967
  482POPC   PO4 5774  12.777  36.072   6.992
  482POPC   GL1 5775  12.964  36.112   6.567
  482POPC   GL2 5776  12.944  36.378   6.628
  482POPC   C1A 5777  12.968  36.143   6.148
  482POPC   D2A 5778  13.004  36.281   5.724
  482POPC   C3A 5779  12.664  36.292   5.356
  482POPC   C4A 5780  12.657  36.180   4.906
  482POPC   C1B 5781  12.782  36.538   6.283
  482POPC   C2B 5782  12.463  36.665   6.073
  482POPC   C3B 5783  12.297  36.523   5.581
  482POPC   C4B 5784  12.231  36.357   5.123
  483POPC   NC3 5785  14.947  14.432   7.291
  483POPC   PO4 5786  15.088  14.089   7.284
  483POPC   GL1 5787  15.438  13.966   7.003
  483POPC   GL2 5788  15.297  14.190   6.865
  483POPC   C1A 5789  15.543  13.783   6.621
  483POPC   D2A 5790  15.590  13.755   6.164
  483POPC   C3A 5791  15.550  13.825   5.690
  483POPC   C4A 5792  15.621  14.022   5.219
  483POPC   C1B 5793  15.476  14.195   6.522
  483POPC   C2B 5794  15.386  14.229   6.121
  483POPC   C3B 5795  15.221  14.348   5.709
  483POPC   C4B 5796  14.860  14.202   5.419
  484POPC   NC3 5797   4.768   6.472   6.990
  484POPC   PO4 5798   5.102   6.695   6.871
  484POPC   GL1 5799   4.918   6.981   6.662
  484POPC   GL2 5800   4.729   6.765   6.583
  484POPC   C1A 5801   5.153   7.298   6.499
  484POPC   D2A 5802   5.431   7.323   6.113
  484POPC   C3A 5803   5.221   7.765   6.219
  484POPC   C4A 5804   5.478   8.120   6.044
  484POPC   C1B 5805   4.557   6.596   6.252
  484POPC   C2B 5806   4.515   6.530   5.859
  484POPC   C3B 5807   4.593   6.132   5.571
  484POPC   C4B 5808   4.987   5.822   5.540
  485POPC   NC3 5809  30.023   0.525   7.331
  485POPC   PO4 5810  30.220   0.862   7.327
  485POPC   GL1 5811  30.342   0.825   7.002
  485POPC   GL2 5812  30.221   0.518   6.950
  485POPC   C1A 5813  30.474   0.883   6.572
  485POPC   D2A 5814  30.572   0.719   6.083
  485POPC   C3A 5815  30.772   0.812   5.671
  485POPC   C4A 5816  30.791   0.959   5.188
  485POPC   C1B 5817  30.120   0.456   6.594
  485POPC   C2B 5818  30.202   0.435   6.212
  485POPC   C3B 5819  30.335   0.486   5.722
  485POPC   C4B 5820  30.444   0.566   5.266
  486POPC   NC3 5821  30.936  18.060   7.353
  486POPC   PO4 5822  30.814  18.475   7.410
  486POPC   GL1 5823  31.137  18.618   7.150
  486POPC   GL2 5824  30.993  18.852   7.022
  486POPC   C1A 5825  31.231  18.381   6.744
  486POPC   D2A 5826  31.278  17.886   6.698
  486POPC   C3A 5827  31.155  17.606   6.385
  486POPC   C4A 5828  30.974  17.499   5.920
  486POPC   C1B 5829  31.067  18.829   6.642
  486POPC   C2B 5830  31.033  18.838   6.215
  486POPC   C3B 5831  31.003  18.711   5.732
  486POPC   C4B 5832  30.786  18.408   5.372
  487POPC   NC3 5833  11.537  13.063   7.857
  487POPC   PO4 5834  11.835  13.226   7.690
  487POPC   GL1 5835  12.061  13.074   7.297
  487POPC   GL2 5836  11.993  13.349   7.212
  487POPC   C1A 5837  12.363  13.038   6.931
  487POPC   D2A 5838  12.270  13.289   6.496
  487POPC   C3A 5839  12.085  13.195   6.155
  487POPC   C4A 5840  11.732  13.357   5.876
  487POPC   C1B 5841  11.772  13.405   6.953
  487POPC   C2B 5842  11.706  13.455   6.534
  487POPC   C3B 5843  11.386  13.597   6.195
  487POPC   C4B 5844  11.120  13.946   5.925
  488POPC   NC3 5845  21.616  26.157   7.776
  488POPC   PO4 5846  21.707  26.387   7.487
  488POPC   GL1 5847  21.615  26.406   7.046
  488POPC   GL2 5848  21.782  26.194   6.969
  488POPC   C1A 5849  21.760  26.725   6.896
  488POPC   D2A 5850  21.783  27.273   6.827
  488POPC   C3A 5851  21.602  27.010   6.538
  488POPC   C4A 5852  21.368  26.746   6.218
  488POPC   C1B 5853  22.022  26.360   6.687
  488POPC   C2B 5854  21.921  26.439   6.301
  488POPC   C3B 5855  21.565  26.355   5.970
  488POPC   C4B 5856  21.265  26.036   5.821
  489POPC   NC3 5857  17.204   3.767   8.248
  489POPC   PO4 5858  17.224   4.009   7.984
  489POPC   GL1 5859  17.324   4.139   7.624
  489POPC   GL2 5860  17.226   3.872   7.509
  489POPC   C1A 5861  17.589   4.453   7.420
  489POPC   D2A 5862  17.923   4.665   7.091
  489POPC   C3A 5863  17.867   4.748   6.633
  489POPC   C4A 5864  17.866   5.002   6.189
  489POPC   C1B 5865  17.121   3.743   7.211
  489POPC   C2B 5866  16.913   3.703   6.887
  489POPC   C3B 5867  16.808   3.396   6.489
  489POPC   C4B 5868  16.992   3.186   6.154
  490POPC   NC3 5869  16.614   1.780   7.171
  490POPC   PO4 5870  16.788   1.416   7.112
  490POPC   GL1 5871  16.529   1.273   6.821
  490POPC   GL2 5872  16.720   1.170   6.623
  490POPC   C1A 5873  16.459   1.592   6.527
  490POPC   D2A 5874  16.222   1.547   6.160
  490POPC   C3A 5875  16.403   1.834   5.853
  490POPC   C4A 5876  16.345   2.093   5.399
  490POPC   C1B 5877  16.639   1.281   6.266
  490POPC   C2B 5878  16.612   1.377   5.841
  490POPC   C3B 5879  16.790   1.312   5.387
  490POPC   C4B 5880  16.820   1.507   4.985
  491POPC   NC3 5881  27.310  10.207   7.991
  491POPC   PO4 5882  27.121  10.196   7.662
  491POPC   GL1 5883  26.976   9.890   7.377
  491POPC   GL2 5884  27.093   9.984   7.160
  491POPC   C1A 5885  26.576   9.814   7.239
  491POPC   D2A 5886  26.331   9.432   7.411
  491POPC   C3A 5887  26.265   8.959   7.240
  491POPC   C4A 5888  26.293   8.562   7.011
  491POPC   C1B 5889  27.017   9.933   6.812
  491POPC   C2B 5890  26.955   9.931   6.411
  491POPC   C3B 5891  26.853  10.002   5.957
  491POPC   C4B 5892  26.903  10.192   5.519
  492POPC   NC3 5893  20.888   3.695   6.929
  492POPC   PO4 5894  20.509   3.691   7.096
  492POPC   GL1 5895  20.175   3.535   6.934
  492POPC   GL2 5896  20.168   3.382   6.764
  492POPC   C1A 5897  19.862   3.785   6.767
  492POPC   D2A 5898  19.425   3.536   6.703
  492POPC   C3A 5899  19.109   3.168   6.645
  492POPC   C4A 5900  18.746   3.226   6.429
  492POPC   C1B 5901  20.007   3.472   6.464
  492POPC   C2B 5902  19.984   3.500   6.015
  492POPC   C3B 5903  20.160   3.342   5.538
  492POPC   C4B 5904  20.410   3.171   5.162
  493POPC   NC3 5905   3.475  18.398   7.564
  493POPC   PO4 5906   3.330  18.081   7.379
  493POPC   GL1 5907   3.136  17.904   7.015
  493POPC   GL2 5908   3.417  17.993   6.905
  493POPC   C1A 5909   2.736  17.838   6.903
  493POPC   D2A 5910   2.302  17.969   6.635
  493POPC   C3A 5911   2.520  18.187   6.300
  493POPC   C4A 5912   2.666  18.468   5.867
  493POPC   C1B 5913   3.418  18.062   6.529
  493POPC   C2B 5914   3.490  18.014   6.156
  493POPC   C3B 5915   3.365  18.074   5.617
  493POPC   C4B 5916   3.785  17.917   5.369
  494POPC   NC3 5917  26.312   1.944   7.858
  494POPC   PO4 5918  26.305   2.188   7.559
  494POPC   GL1 5919  26.368   2.297   7.180
  494POPC   GL2 5920  26.073   2.480   7.186
  494POPC   C1A 5921  26.497   2.174   6.806
  494POPC   D2A 5922  26.417   2.252   6.246
  494POPC   C3A 5923  26.312   2.051   5.831
  494POPC   C4A 5924  26.199   1.877   5.399
  494POPC   C1B 5925  26.049   2.594   6.792
  494POPC   C2B 5926  26.038   2.619   6.421
  494POPC   C3B 5927  26.067   2.528   5.987
  494POPC   C4B 5928  26.401   2.581   5.761
  495POPC   NC3 5929  22.649  19.242   8.032
  495POPC   PO4 5930  22.424  18.889   8.088
  495POPC   GL1 5931  22.314  18.735   7.728
  495POPC   GL2 5932  22.060  18.769   7.684
  495POPC   C1A 5933  22.467  18.867   7.398
  495POPC   D2A 5934  22.635  18.706   6.963
  495POPC   C3A 5935  22.484  18.723   6.488
  495POPC   C4A 5936  22.742  18.496   6.118
  495POPC   C1B 5937  21.971  18.804   7.342
  495POPC   C2B 5938  22.088  18.593   7.056
  495POPC   C3B 5939  21.969  18.621   6.549
  495POPC   C4B 5940  21.529  18.671   6.323
  496POPC   NC3 5941  29.071  23.854   7.955
  496POPC   PO4 5942  29.108  24.095   7.656
  496POPC   GL1 5943  29.257  24.117   7.328
  496POPC   GL2 5944  28.962  24.095   7.126
  496POPC   C1A 5945  29.346  24.422   7.071
  496POPC   D2A 5946  29.383  24.647   6.634
  496POPC   C3A 5947  29.407  24.219   6.561
  496POPC   C4A 5948  29.701  23.786   6.487
  496POPC   C1B 5949  28.983  24.055   6.801
  496POPC   C2B 5950  28.805  24.014   6.399
  496POPC   C3B 5951  28.799  24.127   5.900
  496POPC   C4B 5952  28.826  24.410   5.435
  497POPC   NC3 5953  26.314  12.822   7.901
  497POPC   PO4 5954  26.198  12.717   7.530
  497POPC   GL1 5955  26.422  12.775   7.180
  497POPC   GL2 5956  26.387  13.040   7.019
  497POPC   C1A 5957  26.425  12.535   6.756
  497POPC   D2A 5958  26.421  12.368   6.263
  497POPC   C3A 5959  26.359  12.276   5.783
  497POPC   C4A 5960  26.310  11.991   5.398
  497POPC   C1B 5961  26.469  12.905   6.659
  497POPC   C2B 5962  26.508  12.906   6.288
  497POPC   C3B 5963  26.448  13.015   5.796
  497POPC   C4B 5964  26.615  13.306   5.392
  498POPC   NC3 5965  32.082  35.849   7.158
  498POPC   PO4 5966  32.503  35.918   7.166
  498POPC   GL1 5967  32.632  35.993   6.830
  498POPC   GL2 5968  32.644  35.633   6.753
  498POPC   C1A 5969  32.776  36.171   6.472
  498POPC   D2A 5970  32.851  36.259   6.009
  498POPC   C3A 5971  32.877  36.010   5.555
  498POPC   C4A 5972  33.144  35.819   5.211
  498POPC   C1B 5973  32.768  35.688   6.362
  498POPC   C2B 5974  32.906  35.715   5.991
  498POPC   C3B 5975  33.208  35.613   5.666
  498POPC   C4B 5976  33.357  35.178   5.392
  499POPC   NC3 5977  33.785   6.460   7.749
  499POPC   PO4 5978  33.399   6.466   7.695
  499POPC   GL1 5979  33.451   6.388   7.321
  499POPC   GL2 5980  33.687   6.522   7.247
  499POPC   C1A 5981  33.186   6.219   6.986
  499POPC   D2A 5982  33.492   6.108   6.577
  499POPC   C3A 5983  33.834   6.176   6.231
  499POPC   C4A 5984  33.958   6.337   5.783
  499POPC   C1B 5985  33.645   6.548   6.882
  499POPC   C2B 5986  33.775   6.569   6.513
  499POPC   C3B 5987  33.900   6.781   6.041
  499POPC   C4B 5988  34.089   6.911   5.556
  500POPC   NC3 5989   1.933   7.553   7.606
  500POPC   PO4 5990   1.618   7.367   7.517
  500POPC   GL1 5991   1.526   7.061   7.161
  500POPC   GL2 5992   1.298   7.268   7.095
  500POPC   C1A 5993   1.714   6.911   6.839
  500POPC   D2A 5994   1.739   6.848   6.325
  500POPC   C3A 5995   1.961   6.834   5.907
  500POPC   C4A 5996   1.955   6.530   5.502
  500POPC   C1B 5997   1.339   7.374   6.740
  500POPC   C2B 5998   1.536   7.357   6.351
  500POPC   C3B 5999   1.357   7.458   5.826
  500POPC   C4B 6000   1.248   7.742   5.464
  501POPC   NC3 6001   6.723  25.812   6.872
  501POPC   PO4 6002   7.123  25.788   6.901
  501POPC   GL1 6003   7.334  25.811   6.525
  501POPC   GL2 6004   7.130  25.741   6.418
  501POPC   C1A 6005   7.432  26.160   6.252
  501POPC   D2A 6006   7.812  26.129   5.864
  501POPC   C3A 6007   7.713  26.401   5.494
  501POPC   C4A 6008   7.873  26.785   5.209
  501POPC   C1B 6009   7.043  25.588   6.124
  501POPC   C2B 6010   6.694  25.508   5.863
  501POPC   C3B 6011   6.706  25.494   5.386
  501POPC   C4B 6012   6.766  25.485   4.850
  502POPC   NC3 6013  19.188  16.190   7.330
  502POPC   PO4 6014  18.994  16.529   7.346
  502POPC   GL1 6015  19.173  16.616   6.905
  502POPC   GL2 6016  19.388  16.405   7.004
  502POPC   C1A 6017  19.129  16.593   6.493
  502POPC   D2A 6018  18.954  16.477   6.065
  502POPC   C3A 6019  18.646  16.329   5.765
  502POPC   C4A 6020  18.377  16.217   5.442
  502POPC   C1B 6021  19.539  16.294   6.673
  502POPC   C2B 6022  19.510  16.341   6.261
  502POPC   C3B 6023  19.335  16.183   5.891
  502POPC   C4B 6024  19.289  15.942   5.460
  503POPC   NC3 6025   4.191   0.175   7.221
  503POPC   PO4 6026   3.818   0.019   7.210
  503POPC   GL1 6027   3.531   0.016   6.943
  503POPC   GL2 6028   3.628  -0.292   6.924
  503POPC   C1A 6029   3.520   0.103   6.531
  503POPC   D2A 6030   3.676   0.379   6.166
  503POPC   C3A 6031   4.075   0.544   5.869
  503POPC   C4A 6032   4.390   0.870   5.635
  503POPC   C1B 6033   3.753  -0.311   6.597
  503POPC   C2B 6034   3.856  -0.268   6.206
  503POPC   C3B 6035   3.887  -0.100   5.777
  503POPC   C4B 6036   3.998  -0.073   5.293
  504POPC   NC3 6037  17.722  24.804   8.165
  504POPC   PO4 6038  17.976  25.042   7.990
  504POPC   GL1 6039  17.901  25.176   7.547
  504POPC   GL2 6040  18.222  25.234   7.559
  504POPC   C1A 6041  17.925  25.269   7.099
  504POPC   D2A 6042  17.999  25.520   6.625
  504POPC   C3A 6043  18.036  25.317   6.168
  504POPC   C4A 6044  17.974  25.364   5.665
  504POPC   C1B 6045  18.358  25.350   7.218
  504POPC   C2B 6046  18.668  25.368   6.917
  504POPC   C3B 6047  18.932  25.213   6.515
  504POPC   C4B 6048  19.061  25.131   6.071
  505POPC   NC3 6049  20.911  31.503   8.003
  505POPC   PO4 6050  20.910  31.789   7.709
  505POPC   GL1 6051  20.945  31.929   7.351
  505POPC   GL2 6052  21.170  31.721   7.412
  505POPC   C1A 6053  21.020  31.979   6.942
  505POPC   D2A 6054  20.965  31.700   6.526
  505POPC   C3A 6055  20.990  31.704   6.082
  505POPC   C4A 6056  21.000  31.621   5.608
  505POPC   C1B 6057  21.256  31.581   7.025
  505POPC   C2B 6058  21.481  31.609   6.645
  505POPC   C3B 6059  21.484  31.842   6.211
  505POPC   C4B 6060  21.401  32.007   5.732
  506POPC   NC3 6061  28.636  28.880   7.214
  506POPC   PO4 6062  28.326  29.014   7.442
  506POPC   GL1 6063  28.193  29.115   7.011
  506POPC   GL2 6064  28.445  29.207   6.940
  506POPC   C1A 6065  28.370  28.732   6.790
  506POPC   D2A 6066  28.483  28.384   6.389
  506POPC   C3A 6067  28.254  28.107   6.065
  506POPC   C4A 6068  28.355  28.043   5.566
  506POPC   C1B 6069  28.393  29.300   6.591
  506POPC   C2B 6070  28.384  29.336   6.138
  506POPC   C3B 6071  28.459  29.096   5.694
  506POPC   C4B 6072  28.398  29.295   5.254
  507POPC   NC3 6073  22.418  13.212   7.365
  507POPC   PO4 6074  22.051  13.173   7.448
  507POPC   GL1 6075  21.993  13.230   7.024
  507POPC   GL2 6076  22.185  12.966   7.007
  507POPC   C1A 6077  22.197  13.476   6.706
  507POPC   D2A 6078  22.249  13.212   6.310
  507POPC   C3A 6079  22.047  13.180   5.894
  507POPC   C4A 6080  21.652  13.167   5.796
  507POPC   C1B 6081  22.489  12.888   6.787
  507POPC   C2B 6082  22.696  12.786   6.429
  507POPC   C3B 6083  22.864  12.666   6.059
  507POPC   C4B 6084  23.007  12.426   5.628
  508POPC   NC3 6085  28.983  24.559   7.454
  508POPC   PO4 6086  28.611  24.448   7.274
  508POPC   GL1 6087  28.638  24.527   6.924
  508POPC   GL2 6088  28.375  24.510   6.875
  508POPC   C1A 6089  28.884  24.557   6.604
  508POPC   D2A 6090  29.166  24.442   6.253
  508POPC   C3A 6091  29.130  24.736   5.860
  508POPC   C4A 6092  29.235  24.728   5.408
  508POPC   C1B 6093  28.365  24.275   6.658
  508POPC   C2B 6094  28.396  24.308   6.225
  508POPC   C3B 6095  28.330  24.119   5.760
  508POPC   C4B 6096  28.601  23.855   5.447
  509POPC   NC3 6097  15.782   0.542   7.422
  509POPC   PO4 6098  15.593   0.884   7.438
  509POPC   GL1 6099  15.398   1.133   7.109
  509POPC   GL2 6100  15.704   1.366   7.089
  509POPC   C1A 6101  15.314   1.115   6.751
  509POPC   D2A 6102  15.156   1.079   6.270
  509POPC   C3A 6103  14.733   1.044   6.473
  509POPC   C4A 6104  14.332   0.988   6.692
  509POPC   C1B 6105  15.653   1.558   6.792
  509POPC   C2B 6106  15.804   1.529   6.411
  509POPC   C3B 6107  15.718   1.596   5.925
  509POPC   C4B 6108  15.860   1.663   5.530
  510POPC   NC3 6109  13.081   8.549   7.494
  510POPC   PO4 6110  12.798   8.440   7.185
  510POPC   GL1 6111  12.736   8.027   7.059
  510POPC   GL2 6112  12.511   8.134   6.994
  510POPC   C1A 6113  12.974   7.953   6.657
  510POPC   D2A 6114  13.080   7.878   6.183
  510POPC   C3A 6115  13.135   7.531   5.810
  510POPC   C4A 6116  13.364   7.465   5.378
  510POPC   C1B 6117  12.513   8.084   6.616
  510POPC   C2B 6118  12.606   8.005   6.261
  510POPC   C3B 6119  12.727   7.908   5.801
  510POPC   C4B 6120  12.874   7.717   5.341
  511POPC   NC3 6121  22.454  30.996   7.590
  511POPC   PO4 6122  22.422  30.720   7.319
  511POPC   GL1 6123  22.695  30.804   7.064
  511POPC   GL2 6124  22.778  30.602   6.890
  511POPC   C1A 6125  22.668  31.171   6.898
  511POPC   D2A 6126  22.361  31.385   6.596
  511POPC   C3A 6127  22.299  31.247   6.186
  511POPC   C4A 6128  22.255  30.745   6.113
  511POPC   C1B 6129  22.900  30.452   6.543
  511POPC   C2B 6130  22.672  30.333   6.157
  511POPC   C3B 6131  22.297  30.125   5.924
  511POPC   C4B 6132  22.100  30.096   5.506
  512POPC   NC3 6133  28.614  10.055   7.444
  512POPC   PO4 6134  28.751  10.427   7.522
  512POPC   GL1 6135  28.634  10.552   7.159
  512POPC   GL2 6136  28.706  10.266   7.044
  512POPC   C1A 6137  28.576  10.860   6.856
  512POPC   D2A 6138  28.544  10.909   6.339
  512POPC   C3A 6139  28.533  10.680   5.943
  512POPC   C4A 6140  28.526  10.854   5.462
  512POPC   C1B 6141  28.743  10.385   6.705
  512POPC   C2B 6142  28.715  10.266   6.292
  512POPC   C3B 6143  28.685  10.173   5.802
  512POPC   C4B 6144  28.455  10.084   5.368
  513POPC   NC3 6145   1.843  16.258   7.672
  513POPC   PO4 6146   1.675  16.631   7.643
  513POPC   GL1 6147   1.662  16.880   7.376
  513POPC   GL2 6148   2.008  16.961   7.303
  513POPC   C1A 6149   1.744  16.696   6.969
  513POPC   D2A 6150   1.819  16.524   6.495
  513POPC   C3A 6151   2.048  16.667   6.155
  513POPC   C4A 6152   2.245  16.662   5.694
  513POPC   C1B 6153   2.079  16.947   6.922
  513POPC   C2B 6154   2.071  17.099   6.521
  513POPC   C3B 6155   2.087  17.235   6.059
  513POPC   C4B 6156   2.332  17.528   5.624
  514POPC   NC3 6157   2.915  22.944   7.777
  514POPC   PO4 6158   3.035  23.296   7.797
  514POPC   GL1 6159   3.190  23.480   7.363
  514POPC   GL2 6160   3.011  23.679   7.374
  514POPC   C1A 6161   3.038  23.311   7.057
  514POPC   D2A 6162   2.977  23.357   6.552
  514POPC   C3A 6163   2.975  23.609   6.215
  514POPC   C4A 6164   2.931  23.325   5.849
  514POPC   C1B 6165   2.997  23.919   7.057
  514POPC   C2B 6166   3.058  23.957   6.639
  514POPC   C3B 6167   3.397  24.048   6.267
  514POPC   C4B 6168   3.800  24.301   6.121
  515POPC   NC3 6169  12.735  31.274   7.646
  515POPC   PO4 6170  12.706  30.906   7.491
  515POPC   GL1 6171  13.000  30.995   7.245
  515POPC   GL2 6172  13.058  30.708   7.087
  515POPC   C1A 6173  13.004  31.324   6.950
  515POPC   D2A 6174  12.940  31.537   6.526
  515POPC   C3A 6175  13.292  31.401   6.192
  515POPC   C4A 6176  13.684  31.375   5.916
  515POPC   C1B 6177  13.029  30.846   6.751
  515POPC   C2B 6178  13.077  30.964   6.373
  515POPC   C3B 6179  13.143  31.025   5.883
  515POPC   C4B 6180  13.362  31.326   5.568
  516POPC   NC3 6181  14.704  31.233   7.560
  516POPC   PO4 6182  14.812  31.637   7.562
  516POPC   GL1 6183  14.764  31.656   7.116
  516POPC   GL2 6184  14.413  31.600   7.221
  516POPC   C1A 6185  14.913  31.797   6.694
  516POPC   D2A 6186  14.897  31.676   6.166
  516POPC   C3A 6187  14.397  31.524   6.033
  516POPC   C4A 6188  14.075  31.568   6.333
  516POPC   C1B 6189  14.105  31.566   7.002
  516POPC   C2B 6190  13.856  31.709   6.716
  516POPC   C3B 6191  13.558  31.804   6.396
  516POPC   C4B 6192  13.112  31.876   6.117
  517POPC   NC3 6193  32.416  27.021   7.895
  517POPC   PO4 6194  32.662  26.911   7.563
  517POPC   GL1 6195  32.601  26.847   7.239
  517POPC   GL2 6196  32.716  26.707   7.025
  517POPC   C1A 6197  32.322  26.863   6.974
  517POPC   D2A 6198  32.415  26.999   6.508
  517POPC   C3A 6199  32.492  27.061   6.058
  517POPC   C4A 6200  32.663  26.688   5.694
  517POPC   C1B 6201  32.682  26.666   6.703
  517POPC   C2B 6202  32.748  26.711   6.273
  517POPC   C3B 6203  33.044  26.535   6.007
  517POPC   C4B 6204  33.051  26.309   5.585
  518POPC   NC3 6205   6.433  24.731   7.132
  518POPC   PO4 6206   6.092  24.523   7.283
  518POPC   GL1 6207   5.961  24.490   6.932
  518POPC   GL2 6208   5.706  24.662   6.941
  518POPC   C1A 6209   5.856  24.267   6.600
  518POPC   D2A 6210   5.758  24.296   6.040
  518POPC   C3A 6211   5.808  24.641   5.663
  518POPC   C4A 6212   5.850  24.896   5.242
  518POPC   C1B 6213   5.439  24.592   6.668
  518POPC   C2B 6214   5.262  24.650   6.247
  518POPC   C3B 6215   5.336  24.397   5.865
  518POPC   C4B 6216   5.368  24.410   5.373
  519POPC   NC3 6217   2.516  20.859   7.608
  519POPC   PO4 6218   2.795  21.090   7.705
  519POPC   GL1 6219   2.824  21.076   7.367
  519POPC   GL2 6220   2.995  20.888   7.316
  519POPC   C1A 6221   2.616  21.024   6.981
  519POPC   D2A 6222   2.265  20.960   6.600
  519POPC   C3A 6223   2.210  21.232   6.202
  519POPC   C4A 6224   2.261  21.690   6.137
  519POPC   C1B 6225   3.124  20.821   6.959
  519POPC   C2B 6226   2.856  20.812   6.628
  519POPC   C3B 6227   2.611  20.875   6.218
  519POPC   C4B 6228   2.363  20.733   5.818
  520POPC   NC3 6229   1.016   4.468   7.777
  520POPC   PO4 6230   0.801   4.528   7.425
  520POPC   GL1 6231   0.529   4.347   7.136
  520POPC   GL2 6232   0.461   4.538   6.966
  520POPC   C1A 6233   0.287   4.062   6.875
  520POPC   D2A 6234   0.118   3.798   6.557
  520POPC   C3A 6235   0.105   3.694   6.110
  520POPC   C4A 6236   0.149   3.572   5.641
  520POPC   C1B 6237   0.418   4.394   6.626
  520POPC   C2B 6238   0.191   4.251   6.340
  520POPC   C3B 6239  -0.145   4.094   6.091
  520POPC   C4B 6240  -0.313   3.747   5.809
  521POPC   NC3 6241  20.551   9.683   7.522
  521POPC   PO4 6242  20.180   9.504   7.482
  521POPC   GL1 6243  20.156   9.467   7.135
  521POPC   GL2 6244  20.310   9.722   7.090
  521POPC   C1A 6245  20.271   9.241   6.817
  521POPC   D2A 6246  20.197   9.246   6.361
  521POPC   C3A 6247  19.969   9.101   5.976
  521POPC   C4A 6248  19.547   9.343   5.793
  521POPC   C1B 6249  20.283   9.737   6.705
  521POPC   C2B 6250  20.159   9.783   6.287
  521POPC   C3B 6251  20.266   9.995   5.849
  521POPC   C4B 6252  20.685   9.979   5.534
  522POPC   NC3 6253   5.201  10.329   7.690
  522POPC   PO4 6254   4.973  10.657   7.640
  522POPC   GL1 6255   4.861  10.727   7.233
  522POPC   GL2 6256   4.790  11.004   7.228
  522POPC   C1A 6257   4.482  10.577   7.058
  522POPC   D2A 6258   4.463  10.193   6.720
  522POPC   C3A 6259   4.509  10.309   6.245
  522POPC   C4A 6260   4.795  10.256   5.854
  522POPC   C1B 6261   4.745  11.003   6.907
  522POPC   C2B 6262   4.515  11.010   6.585
  522POPC   C3B 6263   4.522  10.849   6.131
  522POPC   C4B 6264   4.481  10.604   5.747
  523POPC   NC3 6265   3.452   9.076   8.091
  523POPC   PO4 6266   3.600   9.371   7.818
  523POPC   GL1 6267   3.556   9.323   7.378
  523POPC   GL2 6268   3.332   9.475   7.359
  523POPC   C1A 6269   3.675   9.466   7.030
  523POPC   D2A 6270   3.452   9.685   6.681
  523POPC   C3A 6271   3.179   9.714   6.264
  523POPC   C4A 6272   3.131   9.897   5.818
  523POPC   C1B 6273   3.094   9.545   7.082
  523POPC   C2B 6274   2.842   9.595   6.761
  523POPC   C3B 6275   2.674   9.729   6.358
  523POPC   C4B 6276   2.494   9.578   5.952
  524POPC   NC3 6277  32.806  34.518   7.568
  524POPC   PO4 6278  32.945  34.168   7.502
  524POPC   GL1 6279  33.237  34.188   7.152
  524POPC   GL2 6280  33.071  34.361   7.011
  524POPC   C1A 6281  33.520  34.023   6.928
  524POPC   D2A 6282  33.563  34.187   6.463
  524POPC   C3A 6283  33.527  34.155   6.014
  524POPC   C4A 6284  33.281  33.816   5.738
  524POPC   C1B 6285  33.169  34.397   6.684
  524POPC   C2B 6286  33.297  34.621   6.378
  524POPC   C3B 6287  33.316  34.617   5.904
  524POPC   C4B 6288  33.650  34.352   5.583
  525POPC   NC3 6289  35.071   9.027   7.924
  525POPC   PO4 6290  35.110   8.747   7.673
  525POPC   GL1 6291  35.133   8.514   7.353
  525POPC   GL2 6292  34.909   8.566   7.179
  525POPC   C1A 6293  35.361   8.357   7.025
  525POPC   D2A 6294  35.236   8.584   6.535
  525POPC   C3A 6295  35.229   8.901   6.187
  525POPC   C4A 6296  35.000   9.371   6.269
  525POPC   C1B 6297  34.853   8.734   6.845
  525POPC   C2B 6298  34.764   8.960   6.507
  525POPC   C3B 6299  34.423   9.153   6.163
  525POPC   C4B 6300  34.216   9.083   5.718
  526POPC   NC3 6301  25.443  35.586   7.583
  526POPC   PO4 6302  25.093  35.399   7.645
  526POPC   GL1 6303  24.913  35.581   7.267
  526POPC   GL2 6304  25.072  35.780   7.366
  526POPC   C1A 6305  24.625  35.587   6.844
  526POPC   D2A 6306  24.227  35.797   6.598
  526POPC   C3A 6307  24.079  35.879   6.158
  526POPC   C4A 6308  23.929  35.761   5.736
  526POPC   C1B 6309  25.374  35.871   7.196
  526POPC   C2B 6310  25.548  35.757   6.891
  526POPC   C3B 6311  25.688  35.572   6.530
  526POPC   C4B 6312  25.716  35.496   6.060
  527POPC   NC3 6313  11.288  30.831   7.320
  527POPC   PO4 6314  10.919  30.753   7.142
  527POPC   GL1 6315  10.986  30.719   6.760
  527POPC   GL2 6316  11.252  30.907   6.814
  527POPC   C1A 6317  10.953  30.550   6.315
  527POPC   D2A 6318  11.160  30.546   5.798
  527POPC   C3A 6319  10.782  30.524   5.590
  527POPC   C4A 6320  10.378  30.618   5.336
  527POPC   C1B 6321  11.260  30.933   6.459
  527POPC   C2B 6322  11.240  30.944   6.034
  527POPC   C3B 6323  11.160  30.977   5.570
  527POPC   C4B 6324  11.420  31.244   5.285
  528POPC   NC3 6325   8.473   6.960   7.399
  528POPC   PO4 6326   8.642   7.322   7.294
  528POPC   GL1 6327   8.658   7.505   6.912
  528POPC   GL2 6328   8.736   7.224   6.825
  528POPC   C1A 6329   8.943   7.560   6.490
  528POPC   D2A 6330   9.028   7.357   6.049
  528POPC   C3A 6331   9.378   7.344   5.728
  528POPC   C4A 6332   9.644   7.368   5.273
  528POPC   C1B 6333   8.869   7.043   6.531
  528POPC   C2B 6334   8.639   7.131   6.217
  528POPC   C3B 6335   8.374   7.138   5.884
  528POPC   C4B 6336   8.082   7.346   5.505
  529POPC   NC3 6337  29.561  14.968   8.089
  529POPC   PO4 6338  29.846  15.149   7.866
  529POPC   GL1 6339  29.872  14.940   7.449
  529POPC   GL2 6340  29.752  15.205   7.379
  529POPC   C1A 6341  29.891  14.664   7.192
  529POPC   D2A 6342  29.950  14.485   6.760
  529POPC   C3A 6343  30.281  14.633   6.522
  529POPC   C4A 6344  30.707  14.642   6.348
  529POPC   C1B 6345  29.807  15.134   6.992
  529POPC   C2B 6346  29.938  15.018   6.583
  529POPC   C3B 6347  29.991  15.016   6.101
  529POPC   C4B 6348  30.003  15.145   5.602
  530POPC   NC3 6349  25.944   3.348   7.326
  530POPC   PO4 6350  25.674   3.078   7.412
  530POPC   GL1 6351  25.739   2.897   7.061
  530POPC   GL2 6352  26.024   2.941   7.112
  530POPC   C1A 6353  25.581   2.873   6.681
  530POPC   D2A 6354  25.500   2.671   6.244
  530POPC   C3A 6355  25.429   2.618   5.777
  530POPC   C4A 6356  25.248   2.903   5.414
  530POPC   C1B 6357  26.020   3.076   6.746
  530POPC   C2B 6358  25.879   3.149   6.363
  530POPC   C3B 6359  25.738   3.002   5.931
  530POPC   C4B 6360  25.950   2.724   5.513
  531POPC   NC3 6361   3.884   1.773   7.368
  531POPC   PO4 6362   3.606   2.006   7.473
  531POPC   GL1 6363   3.775   2.229   7.108
  531POPC   GL2 6364   3.533   2.421   7.209
  531POPC   C1A 6365   3.940   2.270   6.659
  531POPC   D2A 6366   3.957   2.180   6.160
  531POPC   C3A 6367   3.900   2.082   5.713
  531POPC   C4A 6368   3.910   1.715   5.399
  531POPC   C1B 6369   3.508   2.507   6.860
  531POPC   C2B 6370   3.453   2.410   6.473
  531POPC   C3B 6371   3.379   2.323   6.048
  531POPC   C4B 6372   3.169   2.280   5.653
  532POPC   NC3 6373  23.478  11.786   7.648
  532POPC   PO4 6374  23.407  11.613   7.315
  532POPC   GL1 6375  23.562  11.706   6.936
  532POPC   GL2 6376  23.600  11.960   7.002
  532POPC   C1A 6377  23.586  11.665   6.494
  532POPC   D2A 6378  23.472  11.637   6.053
  532POPC   C3A 6379  23.683  11.675   5.619
  532POPC   C4A 6380  23.761  11.217   5.390
  532POPC   C1B 6381  23.664  12.119   6.631
  532POPC   C2B 6382  23.748  12.028   6.228
  532POPC   C3B 6383  23.943  12.249   5.864
  532POPC   C4B 6384  24.125  12.579   5.601
  533POPC   NC3 6385  22.690  28.659   7.036
  533POPC   PO4 6386  22.644  28.275   7.041
  533POPC   GL1 6387  22.813  27.967   6.739
  533POPC   GL2 6388  22.889  28.357   6.737
  533POPC   C1A 6389  22.913  27.555   6.892
  533POPC   D2A 6390  22.932  27.049   6.824
  533POPC   C3A 6391  22.792  27.233   6.427
  533POPC   C4A 6392  22.431  27.019   6.114
  533POPC   C1B 6393  22.824  28.439   6.343
  533POPC   C2B 6394  22.982  28.429   5.958
  533POPC   C3B 6395  22.895  28.390   5.464
  533POPC   C4B 6396  22.856  28.353   4.954
  534POPC   NC3 6397  12.553   3.623   7.397
  534POPC   PO4 6398  12.350   3.869   7.119
  534POPC   GL1 6399  12.246   3.851   6.750
  534POPC   GL2 6400  12.097   4.204   6.750
  534POPC   C1A 6401  12.492   3.911   6.328
  534POPC   D2A 6402  12.639   4.152   5.843
  534POPC   C3A 6403  12.695   4.637   5.831
  534POPC   C4A 6404  12.724   5.124   5.753
  534POPC   C1B 6405  12.132   4.250   6.401
  534POPC   C2B 6406  12.139   4.338   5.994
  534POPC   C3B 6407  12.143   4.483   5.497
  534POPC   C4B 6408  11.932   4.475   5.038
  535POPC   NC3 6409  13.363  23.369   7.509
  535POPC   PO4 6410  13.324  23.672   7.247
  535POPC   GL1 6411  13.312  23.797   6.844
  535POPC   GL2 6412  13.642  23.820   6.878
  535POPC   C1A 6413  13.277  23.695   6.447
  535POPC   D2A 6414  13.249  23.699   5.919
  535POPC   C3A 6415  13.331  23.818   5.482
  535POPC   C4A 6416  13.660  24.122   5.306
  535POPC   C1B 6417  13.767  23.724   6.553
  535POPC   C2B 6418  13.674  23.673   6.137
  535POPC   C3B 6419  13.578  23.392   5.804
  535POPC   C4B 6420  13.615  22.953   5.518
  536POPC   NC3 6421  33.596   1.964   7.023
  536POPC   PO4 6422  33.517   1.583   7.064
  536POPC   GL1 6423  33.435   1.324   6.789
  536POPC   GL2 6424  33.631   1.388   6.609
  536POPC   C1A 6425  33.181   1.282   6.419
  536POPC   D2A 6426  32.902   1.591   6.032
  536POPC   C3A 6427  32.864   1.823   5.642
  536POPC   C4A 6428  32.602   2.117   5.246
  536POPC   C1B 6429  33.520   1.720   6.452
  536POPC   C2B 6430  33.656   2.111   6.308
  536POPC   C3B 6431  34.026   2.251   6.109
  536POPC   C4B 6432  34.371   2.488   5.747
  537POPC   NC3 6433   4.814  28.698   7.858
  537POPC   PO4 6434   4.496  28.929   7.698
  537POPC   GL1 6435   4.610  28.971   7.334
  537POPC   GL2 6436   4.812  28.841   7.253
  537POPC   C1A 6437   4.616  29.380   7.096
  537POPC   D2A 6438   4.422  29.658   6.769
  537POPC   C3A 6439   4.454  29.639   6.340
  537POPC   C4A 6440   4.543  29.592   5.874
  537POPC   C1B 6441   4.847  28.725   6.884
  537POPC   C2B 6442   5.013  28.567   6.518
  537POPC   C3B 6443   4.928  28.557   6.046
  537POPC   C4B 6444   4.840  28.675   5.569
  538POPC   NC3 6445  28.664  13.386   8.310
  538POPC   PO4 6446  28.617  13.728   8.064
  538POPC   GL1 6447  28.541  13.532   7.631
  538POPC   GL2 6448  28.817  13.608   7.545
  538POPC   C1A 6449  28.641  13.148   7.382
  538POPC   D2A 6450  28.438  12.857   6.933
  538POPC   C3A 6451  28.879  12.964   6.720
  538POPC   C4A 6452  29.006  12.959   6.225
  538POPC   C1B 6453  28.834  13.534   7.172
  538POPC   C2B 6454  28.968  13.452   6.807
  538POPC   C3B 6455  29.056  13.453   6.302
  538POPC   C4B 6456  29.053  13.464   5.878
  539POPC   NC3 6457  17.548  16.390   7.691
  539POPC   PO4 6458  17.823  16.098   7.661
  539POPC   GL1 6459  17.684  16.079   7.271
  539POPC   GL2 6460  17.707  16.347   7.231
  539POPC   C1A 6461  17.802  15.958   6.852
  539POPC   D2A 6462  17.981  15.729   6.446
  539POPC   C3A 6463  17.765  15.905   6.112
  539POPC   C4A 6464  17.904  16.123   5.657
  539POPC   C1B 6465  17.677  16.411   6.840
  539POPC   C2B 6466  17.533  16.255   6.487
  539POPC   C3B 6467  17.344  16.242   6.066
  539POPC   C4B 6468  17.373  15.903   5.645
  540POPC   NC3 6469   5.926  22.232   7.056
  540POPC   PO4 6470   6.250  22.363   7.230
  540POPC   GL1 6471   6.530  22.579   7.035
  540POPC   GL2 6472   6.359  22.768   6.911
  540POPC   C1A 6473   6.645  22.354   6.730
  540POPC   D2A 6474   6.280  21.986   6.798
  540POPC   C3A 6475   5.887  22.143   6.557
  540POPC   C4A 6476   5.359  22.125   6.466
  540POPC   C1B 6477   6.199  22.489   6.673
  540POPC   C2B 6478   6.317  22.250   6.340
  540POPC   C3B 6479   6.491  22.331   5.935
  540POPC   C4B 6480   6.601  22.448   5.504
  541POPC   NC3 6481  18.243   0.247   7.147
  541POPC   PO4 6482  18.544   0.262   7.401
  541POPC   GL1 6483  18.654  -0.083   7.226
  541POPC   GL2 6484  18.455  -0.259   7.183
  541POPC   C1A 6485  18.821  -0.019   6.810
  541POPC   D2A 6486  18.783   0.046   6.299
  541POPC   C3A 6487  18.628   0.108   5.832
  541POPC   C4A 6488  18.467   0.550   5.757
  541POPC   C1B 6489  18.423  -0.305   6.809
  541POPC   C2B 6490  18.311  -0.212   6.399
  541POPC   C3B 6491  18.318  -0.292   5.939
  541POPC   C4B 6492  18.436  -0.366   5.488
  542POPC   NC3 6493  20.878   2.802   7.345
  542POPC   PO4 6494  20.615   2.547   7.341
  542POPC   GL1 6495  20.622   2.311   7.069
  542POPC   GL2 6496  20.744   2.043   7.125
  542POPC   C1A 6497  20.874   2.395   6.762
  542POPC   D2A 6498  21.023   2.175   6.275
  542POPC   C3A 6499  21.007   2.102   5.829
  542POPC   C4A 6500  20.688   1.901   5.519
  542POPC   C1B 6501  20.685   1.913   6.772
  542POPC   C2B 6502  20.565   1.907   6.363
  542POPC   C3B 6503  20.416   1.887   5.920
  542POPC   C4B 6504  20.216   1.963   5.498
  543POPC   NC3 6505  13.834  14.800   7.522
  543POPC   PO4 6506  13.811  14.510   7.213
  543POPC   GL1 6507  13.970  14.469   6.813
  543POPC   GL2 6508  13.764  14.267   6.765
  543POPC   C1A 6509  13.952  14.772   6.472
  543POPC   D2A 6510  14.202  14.799   6.000
  543POPC   C3A 6511  14.495  14.915   5.657
  543POPC   C4A 6512  14.590  14.757   5.265
  543POPC   C1B 6513  13.573  14.258   6.469
  543POPC   C2B 6514  13.383  14.200   6.090
  543POPC   C3B 6515  13.075  14.161   5.696
  543POPC   C4B 6516  12.822  13.925   5.307
  544POPC   NC3 6517  15.238  27.067   7.544
  544POPC   PO4 6518  15.479  26.777   7.563
  544POPC   GL1 6519  15.630  26.751   7.174
  544POPC   GL2 6520  15.280  26.766   7.130
  544POPC   C1A 6521  15.833  26.493   6.867
  544POPC   D2A 6522  16.031  26.354   6.401
  544POPC   C3A 6523  16.005  26.647   5.994
  544POPC   C4A 6524  15.882  26.569   5.548
  544POPC   C1B 6525  15.045  26.683   6.798
  544POPC   C2B 6526  14.850  26.655   6.436
  544POPC   C3B 6527  14.951  26.695   5.957
  544POPC   C4B 6528  15.091  26.433   5.573
  545POPC   NC3 6529  31.565  15.633   7.865
  545POPC   PO4 6530  31.817  15.834   7.692
  545POPC   GL1 6531  31.940  15.968   7.283
  545POPC   GL2 6532  32.145  15.697   7.374
  545POPC   C1A 6533  31.863  16.032   6.866
  545POPC   D2A 6534  31.611  16.441   6.738
  545POPC   C3A 6535  31.357  16.400   6.348
  545POPC   C4A 6536  31.321  16.542   5.864
  545POPC   C1B 6537  32.108  15.573   6.980
  545POPC   C2B 6538  32.016  15.547   6.561
  545POPC   C3B 6539  31.888  15.629   6.138
  545POPC   C4B 6540  32.077  15.829   5.771
  546POPC   NC3 6541   7.355  15.745   7.611
  546POPC   PO4 6542   7.679  15.604   7.403
  546POPC   GL1 6543   7.812  15.349   7.099
  546POPC   GL2 6544   7.934  15.582   6.913
  546POPC   C1A 6545   7.739  14.944   7.012
  546POPC   D2A 6546   7.611  14.546   6.769
  546POPC   C3A 6547   7.274  14.274   6.653
  546POPC   C4A 6548   7.079  14.361   6.136
  546POPC   C1B 6549   7.806  15.525   6.627
  546POPC   C2B 6550   7.681  15.578   6.249
  546POPC   C3B 6551   7.568  15.568   5.788
  546POPC   C4B 6552   7.607  15.407   5.331
  547POPC   NC3 6553   7.310   1.881   7.468
  547POPC   PO4 6554   7.079   1.646   7.676
  547POPC   GL1 6555   6.780   1.707   7.364
  547POPC   GL2 6556   6.965   1.844   7.170
  547POPC   C1A 6557   6.492   1.818   7.040
  547POPC   D2A 6558   6.293   2.086   6.603
  547POPC   C3A 6559   6.442   2.260   6.288
  547POPC   C4A 6560   6.692   2.641   6.193
  547POPC   C1B 6561   6.893   1.743   6.824
  547POPC   C2B 6562   6.584   1.699   6.544
  547POPC   C3B 6563   6.253   1.735   6.180
  547POPC   C4B 6564   6.036   1.919   5.770
  548POPC   NC3 6565  28.610   3.036   7.868
  548POPC   PO4 6566  28.655   3.026   7.464
  548POPC   GL1 6567  28.853   2.674   7.297
  548POPC   GL2 6568  29.037   2.802   7.158
  548POPC   C1A 6569  28.734   2.425   6.900
  548POPC   D2A 6570  28.671   2.371   6.460
  548POPC   C3A 6571  28.814   2.330   6.021
  548POPC   C4A 6572  28.881   2.406   5.525
  548POPC   C1B 6573  29.008   2.959   6.783
  548POPC   C2B 6574  28.899   2.859   6.418
  548POPC   C3B 6575  28.792   2.879   5.888
  548POPC   C4B 6576  28.521   2.955   5.474
  549POPC   NC3 6577  24.807  29.836   6.615
  549POPC   PO4 6578  25.131  30.021   6.645
  549POPC   GL1 6579  25.213  29.937   6.223
  549POPC   GL2 6580  24.978  29.990   6.207
  549POPC   C1A 6581  25.208  29.819   5.806
  549POPC   D2A 6582  25.267  29.916   5.360
  549POPC   C3A 6583  25.061  29.952   4.930
  549POPC   C4A 6584  25.078  30.037   4.438
  549POPC   C1B 6585  24.796  29.974   5.930
  549POPC   C2B 6586  24.767  29.962   5.506
  549POPC   C3B 6587  24.651  29.709   5.108
  549POPC   C4B 6588  24.236  29.605   4.919
  550POPC   NC3 6589  16.025  10.958   8.154
  550POPC   PO4 6590  16.333  10.870   7.890
  550POPC   GL1 6591  16.239  10.746   7.535
  550POPC   GL2 6592  16.371  11.044   7.441
  550POPC   C1A 6593  16.209  10.448   7.281
  550POPC   D2A 6594  16.156  10.212   6.883
  550POPC   C3A 6595  16.010  10.153   6.472
  550POPC   C4A 6596  15.848  10.058   6.104
  550POPC   C1B 6597  16.193  11.129   7.098
  550POPC   C2B 6598  16.172  11.101   6.696
  550POPC   C3B 6599  16.223  11.086   6.274
  550POPC   C4B 6600  15.894  11.107   5.926
  551POPC   NC3 6601  12.162  12.560   7.551
  551POPC   PO4 6602  12.434  12.257   7.608
  551POPC   GL1 6603  12.435  12.181   7.144
  551POPC   GL2 6604  12.472  12.488   7.102
  551POPC   C1A 6605  12.528  11.912   6.812
  551POPC   D2A 6606  12.659  11.499   6.598
  551POPC   C3A 6607  12.810  11.420   6.196
  551POPC   C4A 6608  12.846  11.056   5.900
  551POPC   C1B 6609  12.527  12.506   6.740
  551POPC   C2B 6610  12.470  12.192   6.463
  551POPC   C3B 6611  12.750  11.933   6.211
  551POPC   C4B 6612  13.014  12.059   5.817
  552POPC   NC3 6613   2.118  16.843   7.700
  552POPC   PO4 6614   1.946  17.180   7.643
  552POPC   GL1 6615   2.099  17.499   7.364
  552POPC   GL2 6616   1.910  17.721   7.351
  552POPC   C1A 6617   2.308  17.441   6.956
  552POPC   D2A 6618   2.388  17.450   6.435
  552POPC   C3A 6619   2.651  17.621   6.080
  552POPC   C4A 6620   2.943  17.956   5.958
  552POPC   C1B 6621   1.884  17.780   6.967
  552POPC   C2B 6622   1.971  17.667   6.510
  552POPC   C3B 6623   2.110  17.778   6.067
  552POPC   C4B 6624   2.450  18.048   5.786
  553POPC   NC3 6625   0.199  14.628   7.697
  553POPC   PO4 6626   0.247  15.045   7.738
  553POPC   GL1 6627   0.431  15.217   7.450
  553POPC   GL2 6628   0.201  15.218   7.241
  553POPC   C1A 6629   0.776  15.456   7.291
  553POPC   D2A 6630   1.234  15.527   7.029
  553POPC   C3A 6631   1.457  15.231   6.741
  553POPC   C4A 6632   1.700  15.331   6.356
  553POPC   C1B 6633   0.347  15.169   6.903
  553POPC   C2B 6634   0.515  15.095   6.516
  553POPC   C3B 6635   0.892  14.991   6.281
  553POPC   C4B 6636   1.149  14.991   5.848
  554POPC   NC3 6637   1.439  11.730   7.933
  554POPC   PO4 6638   1.098  11.922   7.852
  554POPC   GL1 6639   0.957  11.937   7.441
  554POPC   GL2 6640   0.761  11.787   7.420
  554POPC   C1A 6641   1.078  11.840   7.031
  554POPC   D2A 6642   1.207  12.152   6.660
  554POPC   C3A 6643   1.498  12.226   6.302
  554POPC   C4A 6644   1.670  12.256   5.773
  554POPC   C1B 6645   0.535  11.838   7.141
  554POPC   C2B 6646   0.448  12.006   6.784
  554POPC   C3B 6647   0.056  12.139   6.513
  554POPC   C4B 6648  -0.171  12.312   6.179
  555POPC   NC3 6649  14.489  24.404   7.722
  555POPC   PO4 6650  14.749  24.638   7.499
  555POPC   GL1 6651  14.645  24.662   7.053
  555POPC   GL2 6652  14.529  24.868   7.037
  555POPC   C1A 6653  14.802  24.679   6.602
  555POPC   D2A 6654  14.764  24.626   6.130
  555POPC   C3A 6655  14.457  24.464   5.805
  555POPC   C4A 6656  14.526  24.213   5.340
  555POPC   C1B 6657  14.427  25.000   6.719
  555POPC   C2B 6658  14.413  24.893   6.338
  555POPC   C3B 6659  14.189  24.965   5.920
  555POPC   C4B 6660  14.121  24.970   5.423
  556POPC   NC3 6661  33.528   8.894   7.734
  556POPC   PO4 6662  33.271   8.632   7.566
  556POPC   GL1 6663  33.330   8.522   7.181
  556POPC   GL2 6664  33.153   8.316   7.055
  556POPC   C1A 6665  33.535   8.592   6.815
  556POPC   D2A 6666  33.843   8.681   6.511
  556POPC   C3A 6667  34.029   8.399   6.449
  556POPC   C4A 6668  34.067   8.169   6.041
  556POPC   C1B 6669  33.139   8.119   6.747
  556POPC   C2B 6670  33.228   7.957   6.358
  556POPC   C3B 6671  33.440   7.946   5.947
  556POPC   C4B 6672  33.874   7.848   5.708
  557POPC   NC3 6673  16.072  33.717   7.378
  557POPC   PO4 6674  15.720  33.537   7.450
  557POPC   GL1 6675  15.722  33.724   7.074
  557POPC   GL2 6676  15.979  33.507   6.978
  557POPC   C1A 6677  15.411  33.757   6.807
  557POPC   D2A 6678  14.954  33.875   6.540
  557POPC   C3A 6679  14.702  33.654   6.133
  557POPC   C4A 6680  14.476  33.421   5.773
  557POPC   C1B 6681  15.881  33.681   6.637
  557POPC   C2B 6682  15.730  33.785   6.291
  557POPC   C3B 6683  15.498  33.587   5.887
  557POPC   C4B 6684  15.054  33.441   5.805
  558POPC   NC3 6685  24.441   2.344   7.308
  558POPC   PO4 6686  24.698   2.522   7.593
  558POPC   GL1 6687  24.747   2.833   7.347
  558POPC   GL2 6688  24.895   2.691   7.197
  558POPC   C1A 6689  24.503   2.780   6.969
  558POPC   D2A 6690  24.073   2.552   6.848
  558POPC   C3A 6691  24.168   2.669   6.439
  558POPC   C4A 6692  24.142   2.551   5.908
  558POPC   C1B 6693  24.956   2.861   6.857
  558POPC   C2B 6694  25.022   2.858   6.442
  558POPC   C3B 6695  25.089   2.493   6.066
  558POPC   C4B 6696  25.201   2.144   5.723
  559POPC   NC3 6697  29.692   7.989   7.290
  559POPC   PO4 6698  29.652   7.594   7.288
  559POPC   GL1 6699  29.765   7.635   6.901
  559POPC   GL2 6700  29.818   7.872   6.881
  559POPC   C1A 6701  29.384   7.637   6.630
  559POPC   D2A 6702  29.194   7.588   6.209
  559POPC   C3A 6703  29.115   7.555   5.758
  559POPC   C4A 6704  29.019   7.445   5.221
  559POPC   C1B 6705  29.745   8.023   6.583
  559POPC   C2B 6706  29.496   8.057   6.239
  559POPC   C3B 6707  29.301   7.982   5.776
  559POPC   C4B 6708  29.080   7.888   5.376
  560POPC   NC3 6709  13.414  20.467   7.716
  560POPC   PO4 6710  13.522  20.837   7.565
  560POPC   GL1 6711  13.324  20.843   7.230
  560POPC   GL2 6712  13.110  20.941   7.248
  560POPC   C1A 6713  13.476  20.724   6.811
  560POPC   D2A 6714  13.714  20.584   6.345
  560POPC   C3A 6715  13.720  20.282   6.004
  560POPC   C4A 6716  14.194  20.089   5.973
  560POPC   C1B 6717  12.944  20.850   6.955
  560POPC   C2B 6718  12.960  20.835   6.515
  560POPC   C3B 6719  13.080  21.036   6.131
  560POPC   C4B 6720  13.192  21.184   5.696
  561POPC   NC3 6721  23.238  10.622   7.624
  561POPC   PO4 6722  23.531  10.691   7.433
  561POPC   GL1 6723  23.646  10.888   7.069
  561POPC   GL2 6724  23.424  11.059   7.054
  561POPC   C1A 6725  23.899  10.681   6.755
  561POPC   D2A 6726  24.087  10.265   6.415
  561POPC   C3A 6727  23.923   9.807   6.250
  561POPC   C4A 6728  23.695   9.311   6.310
  561POPC   C1B 6729  23.306  11.261   6.762
  561POPC   C2B 6730  23.123  11.556   6.495
  561POPC   C3B 6731  22.932  11.655   5.983
  561POPC   C4B 6732  23.189  11.701   5.586
  562POPC   NC3 6733   2.200  15.622   8.214
  562POPC   PO4 6734   2.183  15.354   7.920
  562POPC   GL1 6735   2.063  15.005   7.716
  562POPC   GL2 6736   2.166  15.046   7.491
  562POPC   C1A 6737   2.151  14.568   7.639
  562POPC   D2A 6738   2.541  14.299   7.622
  562POPC   C3A 6739   2.965  14.390   7.467
  562POPC   C4A 6740   2.963  14.878   7.274
  562POPC   C1B 6741   2.268  14.842   7.176
  562POPC   C2B 6742   2.210  14.645   6.800
  562POPC   C3B 6743   2.010  14.355   6.527
  562POPC   C4B 6744   2.025  14.100   6.163
  563POPC   NC3 6745  13.425  22.150   7.401
  563POPC   PO4 6746  13.045  22.142   7.481
  563POPC   GL1 6747  12.900  22.324   7.177
  563POPC   GL2 6748  12.655  22.272   7.093
  563POPC   C1A 6749  13.109  22.277   6.704
  563POPC   D2A 6750  13.239  22.282   6.247
  563POPC   C3A 6751  13.190  22.172   5.834
  563POPC   C4A 6752  13.241  22.026   5.332
  563POPC   C1B 6753  12.623  22.203   6.764
  563POPC   C2B 6754  12.747  22.193   6.333
  563POPC   C3B 6755  12.692  22.279   5.824
  563POPC   C4B 6756  12.917  22.392   5.354
  564POPC   NC3 6757  18.150   4.997   7.984
  564POPC   PO4 6758  17.832   5.207   8.114
  564POPC   GL1 6759  17.661   5.302   7.730
  564POPC   GL2 6760  17.464   5.152   7.642
  564POPC   C1A 6761  17.744   5.386   7.284
  564POPC   D2A 6762  18.057   5.577   6.992
  564POPC   C3A 6763  18.048   5.830   6.568
  564POPC   C4A 6764  17.730   5.593   6.344
  564POPC   C1B 6765  17.282   5.273   7.360
  564POPC   C2B 6766  17.185   5.244   6.967
  564POPC   C3B 6767  16.957   5.089   6.534
  564POPC   C4B 6768  16.884   5.133   6.038
  565POPC   NC3 6769  32.437  12.425   7.199
  565POPC   PO4 6770  32.734  12.595   7.086
  565POPC   GL1 6771  33.045  12.281   6.879
  565POPC   GL2 6772  32.718  12.106   6.878
  565POPC   C1A 6773  33.025  12.566   6.446
  565POPC   D2A 6774  33.138  12.761   6.078
  565POPC   C3A 6775  33.437  12.803   5.669
  565POPC   C4A 6776  33.636  13.159   5.420
  565POPC   C1B 6777  32.576  12.310   6.683
  565POPC   C2B 6778  32.427  12.453   6.346
  565POPC   C3B 6779  32.267  12.501   5.862
  565POPC   C4B 6780  32.160  12.192   5.486
  566POPC   NC3 6781  31.335   5.820   7.537
  566POPC   PO4 6782  31.201   5.442   7.552
  566POPC   GL1 6783  31.111   5.084   7.285
  566POPC   GL2 6784  30.965   5.302   7.078
  566POPC   C1A 6785  31.042   4.864   6.962
  566POPC   D2A 6786  30.943   4.706   6.483
  566POPC   C3A 6787  30.873   4.870   6.025
  566POPC   C4A 6788  30.944   4.761   5.575
  566POPC   C1B 6789  31.026   5.300   6.776
  566POPC   C2B 6790  31.142   5.178   6.325
  566POPC   C3B 6791  31.309   5.060   5.834
  566POPC   C4B 6792  31.354   5.032   5.324
  567POPC   NC3 6793  26.453  28.509   7.590
  567POPC   PO4 6794  26.106  28.463   7.362
  567POPC   GL1 6795  26.013  28.113   7.087
  567POPC   GL2 6796  25.751  28.245   7.035
  567POPC   C1A 6797  26.160  27.963   6.716
  567POPC   D2A 6798  26.239  27.848   6.281
  567POPC   C3A 6799  26.196  27.747   5.823
  567POPC   C4A 6800  26.114  27.330   5.600
  567POPC   C1B 6801  25.683  28.074   6.680
  567POPC   C2B 6802  25.762  28.065   6.255
  567POPC   C3B 6803  25.768  28.077   5.816
  567POPC   C4B 6804  25.895  27.771   5.455
  568POPC   NC3 6805  11.215  32.776   7.673
  568POPC   PO4 6806  10.851  32.656   7.673
  568POPC   GL1 6807  10.754  32.706   7.309
  568POPC   GL2 6808  11.075  32.725   7.128
  568POPC   C1A 6809  10.525  32.519   6.983
  568POPC   D2A 6810  10.558  32.544   6.516
  568POPC   C3A 6811  10.686  32.456   6.099
  568POPC   C4A 6812  10.967  32.389   5.656
  568POPC   C1B 6813  10.966  32.708   6.766
  568POPC   C2B 6814  10.999  32.683   6.352
  568POPC   C3B 6815  11.158  32.746   5.948
  568POPC   C4B 6816  10.884  32.889   5.558
  569POPC   NC3 6817  24.341  15.783   7.585
  569POPC   PO4 6818  24.569  15.512   7.404
  569POPC   GL1 6819  24.507  15.185   7.040
  569POPC   GL2 6820  24.775  15.122   7.036
  569POPC   C1A 6821  24.386  15.144   6.595
  569POPC   D2A 6822  24.292  15.000   6.119
  569POPC   C3A 6823  23.855  14.954   5.963
  569POPC   C4A 6824  23.595  14.706   6.253
  569POPC   C1B 6825  24.797  15.047   6.668
  569POPC   C2B 6826  24.757  15.071   6.244
  569POPC   C3B 6827  24.656  15.080   5.769
  569POPC   C4B 6828  24.704  15.042   5.263
  570POPC   NC3 6829  24.363  27.355   7.542
  570POPC   PO4 6830  24.516  26.996   7.520
  570POPC   GL1 6831  24.544  27.065   7.111
  570POPC   GL2 6832  24.272  27.082   7.096
  570POPC   C1A 6833  24.646  27.041   6.667
  570POPC   D2A 6834  24.624  27.072   6.154
  570POPC   C3A 6835  24.589  27.172   5.706
  570POPC   C4A 6836  24.610  27.582   5.422
  570POPC   C1B 6837  24.196  27.050   6.721
  570POPC   C2B 6838  24.146  27.065   6.307
  570POPC   C3B 6839  24.110  27.207   5.829
  570POPC   C4B 6840  24.151  27.343   5.386
  571POPC   NC3 6841   4.397  26.360   7.627
  571POPC   PO4 6842   4.030  26.354   7.476
  571POPC   GL1 6843   4.026  26.022   7.161
  571POPC   GL2 6844   4.252  26.170   7.039
  571POPC   C1A 6845   3.744  25.740   6.944
  571POPC   D2A 6846   3.466  25.464   6.697
  571POPC   C3A 6847   3.253  25.214   6.418
  571POPC   C4A 6848   3.182  25.195   5.908
  571POPC   C1B 6849   4.127  26.008   6.674
  571POPC   C2B 6850   3.804  25.787   6.439
  571POPC   C3B 6851   3.414  25.701   6.172
  571POPC   C4B 6852   3.196  25.882   5.813
  572POPC   NC3 6853  28.938   5.260   7.364
  572POPC   PO4 6854  29.202   4.934   7.437
  572POPC   GL1 6855  29.366   4.822   7.050
  572POPC   GL2 6856  29.314   4.592   7.046
  572POPC   C1A 6857  29.551   4.958   6.680
  572POPC   D2A 6858  29.332   5.146   6.293
  572POPC   C3A 6859  29.354   5.145   5.822
  572POPC   C4A 6860  29.826   5.020   6.074
  572POPC   C1B 6861  29.306   4.396   6.736
  572POPC   C2B 6862  29.519   4.230   6.378
  572POPC   C3B 6863  29.688   3.870   6.113
  572POPC   C4B 6864  30.025   3.759   5.889
  573POPC   NC3 6865   3.211  20.251   8.050
  573POPC   PO4 6866   3.319  20.382   7.690
  573POPC   GL1 6867   3.370  20.627   7.363
  573POPC   GL2 6868   3.551  20.835   7.302
  573POPC   C1A 6869   3.317  20.383   7.064
  573POPC   D2A 6870   3.098  20.379   6.579
  573POPC   C3A 6871   3.121  20.285   6.109
  573POPC   C4A 6872   3.123  20.109   5.591
  573POPC   C1B 6873   3.421  21.096   7.116
  573POPC   C2B 6874   3.208  21.166   6.720
  573POPC   C3B 6875   2.953  21.246   6.362
  573POPC   C4B 6876   2.669  21.263   5.942
  574POPC   NC3 6877   7.944  27.328   7.415
  574POPC   PO4 6878   7.765  27.636   7.249
  574POPC   GL1 6879   7.617  27.630   6.895
  574POPC   GL2 6880   7.657  27.383   6.726
  574POPC   C1A 6881   7.236  27.701   6.712
  574POPC   D2A 6882   6.929  27.540   6.433
  574POPC   C3A 6883   6.798  27.461   6.012
  574POPC   C4A 6884   6.685  27.761   5.615
  574POPC   C1B 6885   7.531  27.448   6.421
  574POPC   C2B 6886   7.299  27.469   6.101
  574POPC   C3B 6887   7.152  27.465   5.665
  574POPC   C4B 6888   6.956  27.410   5.128
  575POPC   NC3 6889  16.985  29.852   7.544
  575POPC   PO4 6890  16.636  30.065   7.487
  575POPC   GL1 6891  16.563  29.813   7.119
  575POPC   GL2 6892  16.299  29.752   7.194
  575POPC   C1A 6893  16.646  30.094   6.815
  575POPC   D2A 6894  16.739  30.164   6.289
  575POPC   C3A 6895  16.602  30.349   5.922
  575POPC   C4A 6896  16.351  30.531   5.543
  575POPC   C1B 6897  16.089  29.526   7.028
  575POPC   C2B 6898  15.981  29.236   6.742
  575POPC   C3B 6899  16.080  28.780   6.703
  575POPC   C4B 6900  16.162  28.336   6.540
  576POPC   NC3 6901   8.041   3.130   7.137
  576POPC   PO4 6902   7.769   3.223   7.372
  576POPC   GL1 6903   7.452   3.135   7.167
  576POPC   GL2 6904   7.649   3.064   6.888
  576POPC   C1A 6905   7.165   2.846   6.954
  576POPC   D2A 6906   6.984   2.631   6.626
  576POPC   C3A 6907   6.523   2.545   6.673
  576POPC   C4A 6908   6.282   2.327   7.069
  576POPC   C1B 6909   7.456   2.905   6.611
  576POPC   C2B 6910   7.531   2.836   6.195
  576POPC   C3B 6911   7.655   2.500   5.920
  576POPC   C4B 6912   7.721   2.234   5.472
  577POPC   NC3 6913  29.971  30.955   7.218
  577POPC   PO4 6914  29.608  30.919   7.002
  577POPC   GL1 6915  29.817  30.880   6.725
  577POPC   GL2 6916  29.697  30.526   6.706
  577POPC   C1A 6917  29.727  30.906   6.254
  577POPC   D2A 6918  29.885  30.972   5.822
  577POPC   C3A 6919  29.844  31.052   5.344
  577POPC   C4A 6920  30.110  30.693   5.114
  577POPC   C1B 6921  29.723  30.419   6.350
  577POPC   C2B 6922  29.787  30.443   5.932
  577POPC   C3B 6923  29.928  30.303   5.494
  577POPC   C4B 6924  30.066  30.169   5.034
  578POPC   NC3 6925  14.045  10.710   7.675
  578POPC   PO4 6926  14.029  10.364   7.416
  578POPC   GL1 6927  13.674  10.252   7.193
  578POPC   GL2 6928  13.939  10.050   7.104
  578POPC   C1A 6929  13.682  10.245   6.731
  578POPC   D2A 6930  13.945  10.233   6.335
  578POPC   C3A 6931  13.990  10.172   5.841
  578POPC   C4A 6932  14.204  10.023   5.411
  578POPC   C1B 6933  13.841   9.771   6.868
  578POPC   C2B 6934  13.895   9.541   6.548
  578POPC   C3B 6935  13.784   9.561   6.064
  578POPC   C4B 6936  13.923   9.656   5.554
  579POPC   NC3 6937   6.366   4.615   7.295
  579POPC   PO4 6938   6.755   4.624   7.178
  579POPC   GL1 6939   6.570   4.774   6.838
  579POPC   GL2 6940   6.781   5.038   6.844
  579POPC   C1A 6941   6.224   4.784   6.494
  579POPC   D2A 6942   6.234   4.711   5.974
  579POPC   C3A 6943   6.239   4.879   5.545
  579POPC   C4A 6944   6.197   5.316   5.285
  579POPC   C1B 6945   6.826   5.179   6.533
  579POPC   C2B 6946   6.807   5.214   6.101
  579POPC   C3B 6947   6.656   4.909   5.801
  579POPC   C4B 6948   6.717   4.759   5.313
  580POPC   NC3 6949  29.993  27.778   8.077
  580POPC   PO4 6950  29.955  27.565   7.768
  580POPC   GL1 6951  30.244  27.606   7.405
  580POPC   GL2 6952  29.974  27.736   7.403
  580POPC   C1A 6953  30.430  27.325   7.071
  580POPC   D2A 6954  30.388  27.342   6.579
  580POPC   C3A 6955  30.489  27.726   6.263
  580POPC   C4A 6956  30.449  28.073   5.839
  580POPC   C1B 6957  30.061  27.880   7.086
  580POPC   C2B 6958  30.424  27.783   6.830
  580POPC   C3B 6959  30.832  27.809   6.588
  580POPC   C4B 6960  30.997  27.636   6.152
  581POPC   NC3 6961  33.615  35.819   6.978
  581POPC   PO4 6962  33.395  36.120   7.052
  581POPC   GL1 6963  33.138  36.210   6.825
  581POPC   GL2 6964  32.969  36.455   6.855
  581POPC   C1A 6965  33.252  36.237   6.371
  581POPC   D2A 6966  33.296  35.959   6.027
  581POPC   C3A 6967  33.400  36.083   5.616
  581POPC   C4A 6968  33.572  36.209   5.153
  581POPC   C1B 6969  32.908  36.660   6.523
  581POPC   C2B 6970  32.925  36.772   6.118
  581POPC   C3B 6971  32.990  37.126   5.796
  581POPC   C4B 6972  33.177  37.458   5.501
  582POPC   NC3 6973  22.055  20.799   7.456
  582POPC   PO4 6974  22.094  20.397   7.391
  582POPC   GL1 6975  21.853  20.254   7.149
  582POPC   GL2 6976  21.696  20.565   7.220
  582POPC   C1A 6977  21.841  20.253   6.735
  582POPC   D2A 6978  21.855  20.222   6.253
  582POPC   C3A 6979  22.050  19.826   6.029
  582POPC   C4A 6980  22.127  19.375   6.178
  582POPC   C1B 6981  21.486  20.632   6.940
  582POPC   C2B 6982  21.440  20.484   6.580
  582POPC   C3B 6983  21.321  20.439   6.089
  582POPC   C4B 6984  21.117  20.101   5.865
  583POPC   NC3 6985   0.477   4.858   7.265
  583POPC   PO4 6986   0.167   4.928   7.052
  583POPC   GL1 6987   0.373   4.828   6.620
  583POPC   GL2 6988   0.256   5.102   6.523
  583POPC   C1A 6989   0.575   4.785   6.207
  583POPC   D2A 6990   0.581   4.863   5.720
  583POPC   C3A 6991   0.703   4.561   5.423
  583POPC   C4A 6992   0.584   4.214   4.970
  583POPC   C1B 6993   0.291   5.154   6.191
  583POPC   C2B 6994   0.208   5.242   5.842
  583POPC   C3B 6995   0.139   5.341   5.339
  583POPC   C4B 6996   0.126   5.163   4.946
  584POPC   NC3 6997  25.279   8.461   7.899
  584POPC   PO4 6998  24.904   8.631   7.892
  584POPC   GL1 6999  24.791   8.401   7.571
  584POPC   GL2 7000  25.118   8.397   7.439
  584POPC   C1A 7001  24.521   8.439   7.178
  584POPC   D2A 7002  24.155   8.713   7.071
  584POPC   C3A 7003  24.398   8.751   6.735
  584POPC   C4A 7004  24.547   8.269   6.621
  584POPC   C1B 7005  24.952   8.481   7.090
  584POPC   C2B 7006  24.893   8.619   6.693
  584POPC   C3B 7007  24.751   8.638   6.250
  584POPC   C4B 7008  24.683   8.964   5.961
  585POPC   NC3 7009  15.631  15.244   7.215
  585POPC   PO4 7010  15.443  14.918   7.152
  585POPC   GL1 7011  15.183  14.631   6.862
  585POPC   GL2 7012  15.209  14.886   6.790
  585POPC   C1A 7013  15.042  14.452   6.451
  585POPC   D2A 7014  14.585  14.502   6.309
  585POPC   C3A 7015  14.453  14.391   5.870
  585POPC   C4A 7016  14.381  14.145   5.426
  585POPC   C1B 7017  15.103  14.857   6.425
  585POPC   C2B 7018  15.022  14.851   6.027
  585POPC   C3B 7019  14.946  14.775   5.569
  585POPC   C4B 7020  14.996  14.538   5.106
  586POPC   NC3 7021  33.538  15.822   8.261
  586POPC   PO4 7022  33.921  15.688   8.228
  586POPC   GL1 7023  34.105  15.854   7.955
  586POPC   GL2 7024  34.255  15.763   7.698
  586POPC   C1A 7025  34.133  16.245   7.837
  586POPC   D2A 7026  33.773  16.526   7.611
  586POPC   C3A 7027  33.732  16.976   7.524
  586POPC   C4A 7028  33.519  17.418   7.611
  586POPC   C1B 7029  34.022  15.669   7.419
  586POPC   C2B 7030  33.974  15.699   7.015
  586POPC   C3B 7031  33.858  15.862   6.562
  586POPC   C4B 7032  33.905  16.098   6.139
  587POPC   NC3 7033  11.454  32.751   8.206
  587POPC   PO4 7034  11.422  33.106   8.042
  587POPC   GL1 7035  11.403  33.286   7.625
  587POPC   GL2 7036  11.671  33.127   7.569
  587POPC   C1A 7037  11.361  33.188   7.184
  587POPC   D2A 7038  11.332  32.982   6.811
  587POPC   C3A 7039  10.913  33.109   6.533
  587POPC   C4A 7040  10.480  33.213   6.373
  587POPC   C1B 7041  11.841  33.282   7.249
  587POPC   C2B 7042  11.674  33.447   6.888
  587POPC   C3B 7043  11.666  33.751   6.509
  587POPC   C4B 7044  11.438  34.139   6.241
  588POPC   NC3 7045   0.881  13.990   8.148
  588POPC   PO4 7046   0.617  14.221   7.983
  588POPC   GL1 7047   0.346  14.197   7.550
  588POPC   GL2 7048   0.542  14.360   7.541
  588POPC   C1A 7049   0.416  13.942   7.186
  588POPC   D2A 7050   0.547  13.534   6.889
  588POPC   C3A 7051   0.378  13.242   6.546
  588POPC   C4A 7052   0.182  13.227   6.112
  588POPC   C1B 7053   0.805  14.214   7.310
  588POPC   C2B 7054   0.762  14.140   6.901
  588POPC   C3B 7055   0.666  13.870   6.563
  588POPC   C4B 7056   0.493  13.598   6.175
  589POPC   NC3 7057   2.624   8.116   8.002
  589POPC   PO4 7058   2.807   8.039   7.656
  589POPC   GL1 7059   2.931   7.771   7.400
  589POPC   GL2 7060   2.705   7.714   7.237
  589POPC   C1A 7061   3.372   7.780   7.089
  589POPC   D2A 7062   3.861   7.840   6.976
  589POPC   C3A 7063   4.156   8.070   6.736
  589POPC   C4A 7064   4.358   8.369   6.434
  589POPC   C1B 7065   2.843   7.748   6.890
  589POPC   C2B 7066   2.932   7.771   6.485
  589POPC   C3B 7067   3.143   7.639   6.079
  589POPC   C4B 7068   3.074   7.524   5.585
  590POPC   NC3 7069  27.237  17.049   8.005
  590POPC   PO4 7070  27.102  17.156   7.609
  590POPC   GL1 7071  27.396  17.157   7.291
  590POPC   GL2 7072  27.538  17.360   7.289
  590POPC   C1A 7073  27.361  16.902   6.955
  590POPC   D2A 7074  27.235  16.894   6.484
  590POPC   C3A 7075  27.271  16.869   6.029
  590POPC   C4A 7076  27.464  16.946   5.622
  590POPC   C1B 7077  27.393  17.548   6.988
  590POPC   C2B 7078  27.325  17.391   6.571
  590POPC   C3B 7079  27.387  17.392   6.122
  590POPC   C4B 7080  27.134  17.286   5.690
  591POPC   NC3 7081  19.009   0.259   7.685
  591POPC   PO4 7082  19.328   0.414   7.631
  591POPC   GL1 7083  19.319   0.515   7.219
  591POPC   GL2 7084  19.296   0.807   7.328
  591POPC   C1A 7085  19.060   0.553   6.838
  591POPC   D2A 7086  18.873   0.590   6.411
  591POPC   C3A 7087  18.960   0.832   5.961
  591POPC   C4A 7088  18.913   0.489   5.570
  591POPC   C1B 7089  19.116   0.948   7.050
  591POPC   C2B 7090  18.867   1.033   6.744
  591POPC   C3B 7091  18.521   0.990   6.540
  591POPC   C4B 7092  18.289   0.792   6.169
  592POPC   NC3 7093  17.333  28.810   7.320
  592POPC   PO4 7094  16.944  28.920   7.257
  592POPC   GL1 7095  16.807  29.042   6.847
  592POPC   GL2 7096  17.101  29.164   6.849
  592POPC   C1A 7097  16.726  29.127   6.363
  592POPC   D2A 7098  16.680  29.220   5.934
  592POPC   C3A 7099  16.495  29.063   5.537
  592POPC   C4A 7100  16.452  28.810   5.031
  592POPC   C1B 7101  17.132  29.150   6.492
  592POPC   C2B 7102  17.160  29.216   6.077
  592POPC   C3B 7103  17.380  29.267   5.667
  592POPC   C4B 7104  17.834  29.399   5.526
  593POPC   NC3 7105  20.891  20.486   7.998
  593POPC   PO4 7106  21.070  20.749   7.814
  593POPC   GL1 7107  21.313  20.726   7.443
  593POPC   GL2 7108  21.090  20.574   7.267
  593POPC   C1A 7109  21.363  21.074   7.156
  593POPC   D2A 7110  21.441  21.502   6.956
  593POPC   C3A 7111  21.347  21.403   6.487
  593POPC   C4A 7112  21.289  21.669   6.053
  593POPC   C1B 7113  20.988  20.541   6.954
  593POPC   C2B 7114  20.946  20.480   6.517
  593POPC   C3B 7115  20.792  20.467   6.047
  593POPC   C4B 7116  20.785  20.657   5.521
  594POPC   NC3 7117  20.112  22.866   7.740
  594POPC   PO4 7118  20.407  23.132   7.727
  594POPC   GL1 7119  20.643  23.061   7.372
  594POPC   GL2 7120  20.587  23.371   7.257
  594POPC   C1A 7121  20.670  22.716   7.103
  594POPC   D2A 7122  20.921  22.458   6.736
  594POPC   C3A 7123  20.884  22.180   6.319
  594POPC   C4A 7124  20.861  21.914   5.889
  594POPC   C1B 7125  20.633  23.315   6.922
  594POPC   C2B 7126  20.771  23.483   6.571
  594POPC   C3B 7127  20.867  23.431   6.084
  594POPC   C4B 7128  20.869  23.420   5.558
  595POPC   NC3 7129   6.739  32.616   7.041
  595POPC   PO4 7130   6.927  32.973   7.111
  595POPC   GL1 7131   7.309  32.869   6.977
  595POPC   GL2 7132   7.285  32.636   6.843
  595POPC   C1A 7133   7.398  33.056   6.545
  595POPC   D2A 7134   7.302  32.980   5.994
  595POPC   C3A 7135   7.566  32.922   5.630
  595POPC   C4A 7136   7.794  32.871   5.151
  595POPC   C1B 7137   7.539  32.541   6.619
  595POPC   C2B 7138   7.584  32.494   6.181
  595POPC   C3B 7139   7.674  32.410   5.688
  595POPC   C4B 7140   7.794  32.268   5.239
  596POPC   NC3 7141  11.839   2.080   7.177
  596POPC   PO4 7142  11.836   2.410   6.971
  596POPC   GL1 7143  11.853   2.446   6.538
  596POPC   GL2 7144  12.007   2.129   6.502
  596POPC   C1A 7145  11.571   2.561   6.221
  596POPC   D2A 7146  11.829   2.747   5.820
  596POPC   C3A 7147  11.923   3.047   5.424
  596POPC   C4A 7148  12.255   3.409   5.511
  596POPC   C1B 7149  12.105   2.052   6.162
  596POPC   C2B 7150  12.158   1.967   5.748
  596POPC   C3B 7151  12.310   1.752   5.358
  596POPC   C4B 7152  12.442   1.557   4.893
  597POPC   NC3 7153  33.165  22.054   7.620
  597POPC   PO4 7154  32.838  22.291   7.506
  597POPC   GL1 7155  32.580  22.282   7.160
  597POPC   GL2 7156  32.862  22.205   7.045
  597POPC   C1A 7157  32.494  22.594   6.836
  597POPC   D2A 7158  32.234  22.568   6.404
  597POPC   C3A 7159  31.994  22.742   6.049
  597POPC   C4A 7160  31.941  22.716   5.581
  597POPC   C1B 7161  32.724  22.198   6.712
  597POPC   C2B 7162  32.791  22.242   6.328
  597POPC   C3B 7163  32.822  22.273   5.840
  597POPC   C4B 7164  33.121  22.208   5.466
  598POPC   NC3 7165  34.670  28.065   7.641
  598POPC   PO4 7166  35.001  27.988   7.465
  598POPC   GL1 7167  35.127  28.134   7.083
  598POPC   GL2 7168  34.840  28.131   6.970
  598POPC   C1A 7169  35.317  28.254   6.727
  598POPC   D2A 7170  35.357  28.079   6.314
  598POPC   C3A 7171  35.665  28.225   6.113
  598POPC   C4A 7172  35.526  28.552   5.680
  598POPC   C1B 7173  34.850  28.037   6.593
  598POPC   C2B 7174  34.895  28.033   6.156
  598POPC   C3B 7175  35.166  28.228   5.827
  598POPC   C4B 7176  35.133  28.479   5.442
  599POPC   NC3 7177   6.982  14.387   7.690
  599POPC   PO4 7178   6.700  14.580   7.474
  599POPC   GL1 7179   6.754  14.685   7.116
  599POPC   GL2 7180   6.920  14.449   7.012
  599POPC   C1A 7181   6.512  14.864   6.739
  599POPC   D2A 7182   6.459  15.036   6.300
  599POPC   C3A 7183   6.842  15.196   5.995
  599POPC   C4A 7184   7.271  15.349   6.188
  599POPC   C1B 7185   6.863  14.420   6.618
  599POPC   C2B 7186   6.614  14.360   6.364
  599POPC   C3B 7187   6.588  14.429   5.921
  599POPC   C4B 7188   6.870  14.630   5.540
  600POPC   NC3 7189  14.022   9.584   7.868
  600POPC   PO4 7190  14.299   9.382   7.679
  600POPC   GL1 7191  14.302   9.356   7.354
  600POPC   GL2 7192  14.505   9.144   7.242
  600POPC   C1A 7193  14.154   9.358   7.004
  600POPC   D2A 7194  14.039   9.049   6.678
  600POPC   C3A 7195  14.082   9.207   6.228
  600POPC   C4A 7196  14.193   9.327   5.769
  600POPC   C1B 7197  14.606   9.130   6.934
  600POPC   C2B 7198  14.547   9.059   6.531
  600POPC   C3B 7199  14.555   9.039   6.034
  600POPC   C4B 7200  14.363   8.887   5.641
  601POPC   NC3 7201  14.318  20.831   7.930
  601POPC   PO4 7202  14.644  21.018   7.826
  601POPC   GL1 7203  14.770  21.067   7.426
  601POPC   GL2 7204  14.871  20.875   7.335
  601POPC   C1A 7205  14.977  21.346   7.193
  601POPC   D2A 7206  15.376  21.613   7.047
  601POPC   C3A 7207  15.462  21.765   6.642
  601POPC   C4A 7208  15.593  21.800   6.157
  601POPC   C1B 7209  14.694  20.609   7.114
  601POPC   C2B 7210  14.738  20.396   6.718
  601POPC   C3B 7211  14.533  20.119   6.349
  601POPC   C4B 7212  14.680  20.174   5.884
  602POPC   NC3 7213  29.320  30.544   7.109
  602POPC   PO4 7214  29.018  30.675   6.908
  602POPC   GL1 7215  29.045  30.725   6.574
  602POPC   GL2 7216  29.367  30.745   6.487
  602POPC   C1A 7217  28.847  30.677   6.162
  602POPC   D2A 7218  29.053  30.559   5.754
  602POPC   C3A 7219  29.282  30.245   5.434
  602POPC   C4A 7220  29.649  29.945   5.498
  602POPC   C1B 7221  29.336  30.517   6.222
  602POPC   C2B 7222  29.432  30.155   6.020
  602POPC   C3B 7223  29.615  29.686   5.945
  602POPC   C4B 7224  29.767  29.416   5.577
  603POPC   NC3 7225  14.632  35.242   7.308
  603POPC   PO4 7226  14.875  35.554   7.288
  603POPC   GL1 7227  15.180  35.555   7.016
  603POPC   GL2 7228  15.312  35.813   7.066
  603POPC   C1A 7229  15.208  35.362   6.652
  603POPC   D2A 7230  14.949  35.514   6.287
  603POPC   C3A 7231  15.124  35.211   6.021
  603POPC   C4A 7232  15.320  35.003   5.563
  603POPC   C1B 7233  15.433  36.047   6.831
  603POPC   C2B 7234  15.460  36.159   6.441
  603POPC   C3B 7235  15.498  36.232   5.992
  603POPC   C4B 7236  15.277  36.361   5.570
  604POPC   NC3 7237  35.179  27.019   7.700
  604POPC   PO4 7238  34.825  26.981   7.618
  604POPC   GL1 7239  34.694  26.789   7.251
  604POPC   GL2 7240  34.459  26.870   7.158
  604POPC   C1A 7241  34.829  26.719   6.872
  604POPC   D2A 7242  34.714  26.424   6.524
  604POPC   C3A 7243  34.788  26.336   6.061
  604POPC   C4A 7244  34.792  26.695   5.694
  604POPC   C1B 7245  34.518  27.046   6.796
  604POPC   C2B 7246  34.681  26.914   6.428
  604POPC   C3B 7247  35.069  26.772   6.162
  604POPC   C4B 7248  35.439  26.706   5.811
  605POPC   NC3 7249  16.759  16.483   7.606
  605POPC   PO4 7250  17.105  16.681   7.535
  605POPC   GL1 7251  17.139  16.721   7.120
  605POPC   GL2 7252  16.946  16.958   7.130
  605POPC   C1A 7253  17.209  16.469   6.825
  605POPC   D2A 7254  17.013  16.083   6.548
  605POPC   C3A 7255  16.860  16.173   6.148
  605POPC   C4A 7256  16.946  16.186   5.707
  605POPC   C1B 7257  16.889  17.035   6.751
  605POPC   C2B 7258  16.838  17.130   6.344
  605POPC   C3B 7259  16.644  17.203   5.965
  605POPC   C4B 7260  16.316  17.165   5.666
  606POPC   NC3 7261   0.143  17.782   7.538
  606POPC   PO4 7262   0.281  17.933   7.204
  606POPC   GL1 7263   0.698  17.929   7.089
  606POPC   GL2 7264   0.751  18.194   7.093
  606POPC   C1A 7265   1.037  17.772   6.807
  606POPC   D2A 7266   1.199  17.573   6.413
  606POPC   C3A 7267   0.930  17.539   5.999
  606POPC   C4A 7268   0.561  17.657   5.710
  606POPC   C1B 7269   0.705  18.212   6.689
  606POPC   C2B 7270   0.626  18.386   6.344
  606POPC   C3B 7271   0.390  18.626   5.904
  606POPC   C4B 7272   0.102  18.979   5.813
  607POPC   NC3 7273   9.495  26.427   7.529
  607POPC   PO4 7274   9.716  26.491   7.191
  607POPC   GL1 7275   9.741  26.430   6.725
  607POPC   GL2 7276   9.517  26.292   6.651
  607POPC   C1A 7277   9.787  26.729   6.373
  607POPC   D2A 7278   9.774  26.707   5.866
  607POPC   C3A 7279   9.846  26.899   5.387
  607POPC   C4A 7280  10.069  26.858   4.929
  607POPC   C1B 7281   9.420  26.431   6.308
  607POPC   C2B 7282   9.315  26.578   5.905
  607POPC   C3B 7283   9.416  26.688   5.432
  607POPC   C4B 7284   9.513  26.861   4.998
  608POPC   NC3 7285  23.559  14.239   7.943
  608POPC   PO4 7286  23.773  14.379   7.638
  608POPC   GL1 7287  23.674  14.250   7.280
  608POPC   GL2 7288  23.912  14.247   7.115
  608POPC   C1A 7289  23.351  14.324   7.014
  608POPC   D2A 7290  23.289  14.282   6.542
  608POPC   C3A 7291  22.870  14.161   6.318
  608POPC   C4A 7292  22.911  13.622   6.223
  608POPC   C1B 7293  23.853  14.198   6.743
  608POPC   C2B 7294  23.798  14.249   6.311
  608POPC   C3B 7295  23.450  14.294   6.010
  608POPC   C4B 7296  23.350  14.214   5.469
  609POPC   NC3 7297  12.214  20.894   7.579
  609POPC   PO4 7298  12.104  20.946   7.218
  609POPC   GL1 7299  12.333  21.003   6.896
  609POPC   GL2 7300  12.381  21.340   6.890
  609POPC   C1A 7301  12.292  20.844   6.521
  609POPC   D2A 7302  12.555  21.002   6.183
  609POPC   C3A 7303  12.352  20.715   5.945
  609POPC   C4A 7304  12.508  20.383   5.640
  609POPC   C1B 7305  12.305  21.332   6.530
  609POPC   C2B 7306  12.290  21.450   6.126
  609POPC   C3B 7307  12.323  21.335   5.669
  609POPC   C4B 7308  12.351  20.860   5.473
  610POPC   NC3 7309  27.336  27.116   7.335
  610POPC   PO4 7310  27.612  27.079   7.106
  610POPC   GL1 7311  27.476  27.088   6.699
  610POPC   GL2 7312  27.235  27.187   6.826
  610POPC   C1A 7313  27.406  26.994   6.270
  610POPC   D2A 7314  27.710  26.890   5.829
  610POPC   C3A 7315  27.925  26.887   5.406
  610POPC   C4A 7316  27.561  26.977   5.075
  610POPC   C1B 7317  26.987  27.267   6.502
  610POPC   C2B 7318  26.817  27.132   6.147
  610POPC   C3B 7319  26.744  26.850   5.738
  610POPC   C4B 7320  26.872  26.542   5.337
  611POPC   NC3 7321   3.771  24.680   7.755
  611POPC   PO4 7322   3.948  25.040   7.606
  611POPC   GL1 7323   4.073  25.174   7.249
  611POPC   GL2 7324   3.871  25.273   6.989
  611POPC   C1A 7325   4.491  25.216   7.164
  611POPC   D2A 7326   4.560  25.196   6.701
  611POPC   C3A 7327   4.391  25.099   6.295
  611POPC   C4A 7328   4.125  24.725   6.093
  611POPC   C1B 7329   4.061  25.054   6.796
  611POPC   C2B 7330   4.018  24.689   6.642
  611POPC   C3B 7331   4.074  24.162   6.535
  611POPC   C4B 7332   4.358  23.740   6.379
  612POPC   NC3 7333  16.047  14.642   7.354
  612POPC   PO4 7334  16.385  14.549   7.103
  612POPC   GL1 7335  16.571  14.738   6.672
  612POPC   GL2 7336  16.399  15.018   6.787
  612POPC   C1A 7337  16.894  14.733   6.309
  612POPC   D2A 7338  16.954  14.736   5.841
  612POPC   C3A 7339  17.032  15.074   5.528
  612POPC   C4A 7340  16.814  15.018   5.105
  612POPC   C1B 7341  16.208  15.225   6.590
  612POPC   C2B 7342  16.060  15.220   6.207
  612POPC   C3B 7343  15.987  15.222   5.740
  612POPC   C4B 7344  15.952  15.330   5.248
  613POPC   NC3 7345  15.857  30.563   7.753
  613POPC   PO4 7346  15.744  30.848   7.491
  613POPC   GL1 7347  15.356  30.781   7.278
  613POPC   GL2 7348  15.367  30.837   7.041
  613POPC   C1A 7349  15.066  31.102   7.200
  613POPC   D2A 7350  14.585  31.185   7.042
  613POPC   C3A 7351  14.416  31.472   6.700
  613POPC   C4A 7352  14.456  31.856   6.427
  613POPC   C1B 7353  15.159  30.989   6.771
  613POPC   C2B 7354  14.949  30.788   6.485
  613POPC   C3B 7355  14.674  30.794   6.032
  613POPC   C4B 7356  14.672  31.120   5.629
  614POPC   NC3 7357   8.731   1.031   7.306
  614POPC   PO4 7358   8.373   1.037   7.135
  614POPC   GL1 7359   8.360   1.145   6.737
  614POPC   GL2 7360   8.191   0.956   6.663
  614POPC   C1A 7361   8.422   1.408   6.341
  614POPC   D2A 7362   8.682   1.435   6.050
  614POPC   C3A 7363   8.757   1.332   5.614
  614POPC   C4A 7364   8.854   1.472   5.113
  614POPC   C1B 7365   8.201   1.015   6.295
  614POPC   C2B 7366   8.232   1.160   5.976
  614POPC   C3B 7367   8.245   1.406   5.576
  614POPC   C4B 7368   8.214   1.551   5.142
  615POPC   NC3 7369   4.314  27.933   7.902
  615POPC   PO4 7370   4.237  27.773   7.557
  615POPC   GL1 7371   4.060  27.945   7.207
  615POPC   GL2 7372   3.906  28.167   7.141
  615POPC   C1A 7373   4.198  27.766   6.822
  615POPC   D2A 7374   4.518  27.750   6.518
  615POPC   C3A 7375   4.402  27.944   6.104
  615POPC   C4A 7376   4.255  28.066   5.644
  615POPC   C1B 7377   3.729  28.138   6.804
  615POPC   C2B 7378   3.584  28.290   6.432
  615POPC   C3B 7379   3.423  28.611   6.097
  615POPC   C4B 7380   3.432  28.907   5.729
  616POPC   NC3 7381   8.707  12.885   7.722
  616POPC   PO4 7382   9.054  12.979   7.548
  616POPC   GL1 7383   9.299  12.988   7.217
  616POPC   GL2 7384   9.396  13.210   7.148
  616POPC   C1A 7385   9.288  12.885   6.862
  616POPC   D2A 7386   9.215  12.967   6.362
  616POPC   C3A 7387   8.951  13.186   6.051
  616POPC   C4A 7388   8.575  13.406   5.816
  616POPC   C1B 7389   9.701  13.376   6.975
  616POPC   C2B 7390   9.845  13.480   6.606
  616POPC   C3B 7391   9.901  13.579   6.154
  616POPC   C4B 7392  10.028  13.676   5.694
  617POPC   NC3 7393   2.697  22.474   7.756
  617POPC   PO4 7394   2.412  22.724   7.682
  617POPC   GL1 7395   2.249  22.556   7.273
  617POPC   GL2 7396   2.509  22.470   7.204
  617POPC   C1A 7397   1.989  22.732   6.944
  617POPC   D2A 7398   1.852  22.865   6.485
  617POPC   C3A 7399   1.826  22.836   6.054
  617POPC   C4A 7400   1.527  23.091   5.836
  617POPC   C1B 7401   2.442  22.563   6.833
  617POPC   C2B 7402   2.335  22.570   6.466
  617POPC   C3B 7403   2.346  22.635   5.962
  617POPC   C4B 7404   2.497  22.736   5.526
  618POPC   NC3 7405  20.998  33.902   7.851
  618POPC   PO4 7406  20.941  34.267   7.756
  618POPC   GL1 7407  21.182  34.466   7.441
  618POPC   GL2 7408  20.926  34.642   7.443
  618POPC   C1A 7409  21.103  34.348   7.049
  618POPC   D2A 7410  21.123  34.218   6.544
  618POPC   C3A 7411  21.134  34.189   6.101
  618POPC   C4A 7412  21.082  33.961   5.694
  618POPC   C1B 7413  20.731  34.566   7.164
  618POPC   C2B 7414  20.807  34.523   6.732
  618POPC   C3B 7415  20.790  34.559   6.301
  618POPC   C4B 7416  20.709  34.464   5.853
  619POPC   NC3 7417   5.960  33.654   7.495
  619POPC   PO4 7418   6.253  33.591   7.217
  619POPC   GL1 7419   6.096  33.643   6.842
  619POPC   GL2 7420   5.974  33.392   6.925
  619POPC   C1A 7421   5.918  34.050   6.595
  619POPC   D2A 7422   5.834  34.271   6.137
  619POPC   C3A 7423   5.702  34.184   5.724
  619POPC   C4A 7424   5.305  34.007   5.534
  619POPC   C1B 7425   6.082  33.128   6.755
  619POPC   C2B 7426   6.178  33.057   6.338
  619POPC   C3B 7427   6.360  33.089   5.918
  619POPC   C4B 7428   6.341  33.319   5.466
  620POPC   NC3 7429  19.061   3.668   7.877
  620POPC   PO4 7430  18.783   3.748   7.613
  620POPC   GL1 7431  18.712   3.592   7.247
  620POPC   GL2 7432  18.486   3.784   7.227
  620POPC   C1A 7433  18.838   3.572   6.772
  620POPC   D2A 7434  19.014   3.810   6.371
  620POPC   C3A 7435  19.157   3.492   6.184
  620POPC   C4A 7436  19.013   3.149   5.814
  620POPC   C1B 7437  18.583   3.955   6.882
  620POPC   C2B 7438  18.574   3.909   6.503
  620POPC   C3B 7439  18.597   3.682   6.125
  620POPC   C4B 7440  18.680   3.486   5.675
  621POPC   NC3 7441  33.555  15.318   8.124
  621POPC   PO4 7442  33.302  15.482   7.959
  621POPC   GL1 7443  33.357  15.692   7.589
  621POPC   GL2 7444  33.576  15.571   7.439
  621POPC   C1A 7445  32.955  15.788   7.433
  621POPC   D2A 7446  32.842  15.972   7.021
  621POPC   C3A 7447  32.834  15.935   6.501
  621POPC   C4A 7448  32.751  15.898   6.050
  621POPC   C1B 7449  33.539  15.492   7.128
  621POPC   C2B 7450  33.599  15.448   6.755
  621POPC   C3B 7451  33.648  15.332   6.293
  621POPC   C4B 7452  33.295  15.316   5.961
  622POPC   NC3 7453  29.708   9.356   7.158
  622POPC   PO4 7454  30.016   9.531   7.329
  622POPC   GL1 7455  29.956   9.891   7.022
  622POPC   GL2 7456  29.955   9.686   6.798
  622POPC   C1A 7457  30.145  10.124   6.706
  622POPC   D2A 7458  30.085  10.150   6.232
  622POPC   C3A 7459  30.231  10.071   5.809
  622POPC   C4A 7460  30.749  10.044   5.635
  622POPC   C1B 7461  29.905   9.639   6.428
  622POPC   C2B 7462  30.004   9.593   5.978
  622POPC   C3B 7463  30.095   9.631   5.520
  622POPC   C4B 7464  30.316  10.002   5.255
  623POPC   NC3 7465  26.350  20.739   7.549
  623POPC   PO4 7466  26.694  20.603   7.319
  623POPC   GL1 7467  26.585  20.457   6.937
  623POPC   GL2 7468  26.507  20.197   7.037
  623POPC   C1A 7469  26.485  20.688   6.543
  623POPC   D2A 7470  26.402  21.023   6.174
  623POPC   C3A 7471  26.573  20.854   5.769
  623POPC   C4A 7472  26.984  20.597   5.626
  623POPC   C1B 7473  26.377  20.160   6.680
  623POPC   C2B 7474  26.309  20.243   6.282
  623POPC   C3B 7475  26.114  20.092   5.897
  623POPC   C4B 7476  25.905  19.784   5.613
  624POPC   NC3 7477  33.441  21.212   7.964
  624POPC   PO4 7478  33.686  20.904   7.873
  624POPC   GL1 7479  33.689  20.636   7.471
  624POPC   GL2 7480  33.938  20.726   7.405
  624POPC   C1A 7481  33.533  20.588   6.998
  624POPC   D2A 7482  33.277  20.731   6.563
  624POPC   C3A 7483  33.388  20.912   6.159
  624POPC   C4A 7484  33.463  20.927   5.604
  624POPC   C1B 7485  33.952  20.792   7.012
  624POPC   C2B 7486  34.001  20.816   6.616
  624POPC   C3B 7487  34.208  20.684   6.176
  624POPC   C4B 7488  34.349  20.843   5.808
  625POPC   NC3 7489  33.140  15.957   7.842
  625POPC   PO4 7490  33.345  16.279   7.986
  625POPC   GL1 7491  33.297  16.600   7.767
  625POPC   GL2 7492  33.276  16.831   7.869
  625POPC   C1A 7493  33.383  16.662   7.332
  625POPC   D2A 7494  33.458  16.683   6.840
  625POPC   C3A 7495  33.837  16.788   7.008
  625POPC   C4A 7496  34.221  16.423   7.143
  625POPC   C1B 7497  33.258  17.038   7.578
  625POPC   C2B 7498  33.372  17.131   7.164
  625POPC   C3B 7499  33.438  17.142   6.695
  625POPC   C4B 7500  33.471  17.390   6.253
  626POPC   NC3 7501   3.956   2.546   7.370
  626POPC   PO4 7502   4.134   2.196   7.464
  626POPC   GL1 7503   4.324   2.246   7.100
  626POPC   GL2 7504   4.321   2.571   7.070
  626POPC   C1A 7505   4.555   1.996   6.874
  626POPC   D2A 7506   4.644   1.791   6.408
  626POPC   C3A 7507   4.727   1.639   5.980
  626POPC   C4A 7508   4.886   1.525   5.556
  626POPC   C1B 7509   4.357   2.420   6.697
  626POPC   C2B 7510   4.420   2.229   6.372
  626POPC   C3B 7511   4.425   2.100   5.930
  626POPC   C4B 7512   4.404   1.866   5.525
  627POPC   NC3 7513  17.652  21.374   7.570
  627POPC   PO4 7514  17.570  21.746   7.627
  627POPC   GL1 7515  17.596  22.037   7.239
  627POPC   GL2 7516  17.862  22.074   7.413
  627POPC   C1A 7517  17.705  21.790   6.904
  627POPC   D2A 7518  17.876  21.632   6.462
  627POPC   C3A 7519  18.009  21.410   6.128
  627POPC   C4A 7520  17.964  21.444   5.586
  627POPC   C1B 7521  18.170  22.102   7.201
  627POPC   C2B 7522  18.215  22.016   6.813
  627POPC   C3B 7523  18.354  21.864   6.385
  627POPC   C4B 7524  18.271  21.762   5.926
  628POPC   NC3 7525   1.688  19.605   7.297
  628POPC   PO4 7526   1.496  19.347   7.529
  628POPC   GL1 7527   1.318  19.245   7.129
  628POPC   GL2 7528   1.327  19.034   7.132
  628POPC   C1A 7529   1.338  19.561   6.869
  628POPC   D2A 7530   1.419  19.806   6.439
  628POPC   C3A 7531   1.184  19.653   6.019
  628POPC   C4A 7532   1.081  19.254   5.812
  628POPC   C1B 7533   1.333  18.986   6.758
  628POPC   C2B 7534   1.414  19.151   6.395
  628POPC   C3B 7535   1.622  19.447   6.040
  628POPC   C4B 7536   1.751  19.789   5.767
  629POPC   NC3 7537  21.978  19.095   7.999
  629POPC   PO4 7538  22.205  19.423   7.981
  629POPC   GL1 7539  22.377  19.443   7.644
  629POPC   GL2 7540  22.186  19.234   7.483
  629POPC   C1A 7541  22.781  19.292   7.581
  629POPC   D2A 7542  23.241  19.307   7.478
  629POPC   C3A 7543  23.529  19.516   7.226
  629POPC   C4A 7544  23.759  19.110   7.102
  629POPC   C1B 7545  22.109  19.492   7.242
  629POPC   C2B 7546  21.954  19.518   6.850
  629POPC   C3B 7547  21.869  19.726   6.457
  629POPC   C4B 7548  21.446  19.909   6.202
  630POPC   NC3 7549  22.029  27.432   7.784
  630POPC   PO4 7550  22.449  27.380   7.641
  630POPC   GL1 7551  22.534  27.535   7.231
  630POPC   GL2 7552  22.498  27.248   7.134
  630POPC   C1A 7553  22.353  27.714   6.816
  630POPC   D2A 7554  22.081  27.469   6.490
  630POPC   C3A 7555  21.648  27.368   6.196
  630POPC   C4A 7556  21.545  27.043   5.817
  630POPC   C1B 7557  22.449  27.001   6.844
  630POPC   C2B 7558  22.227  26.855   6.528
  630POPC   C3B 7559  21.934  26.931   6.127
  630POPC   C4B 7560  21.881  26.651   5.709
  631POPC   NC3 7561   2.383  21.578   7.268
  631POPC   PO4 7562   2.220  21.748   7.633
  631POPC   GL1 7563   1.952  21.858   7.453
  631POPC   GL2 7564   1.859  21.542   7.443
  631POPC   C1A 7565   1.950  21.800   7.042
  631POPC   D2A 7566   1.605  21.614   6.742
  631POPC   C3A 7567   1.312  21.375   6.520
  631POPC   C4A 7568   1.210  21.460   6.017
  631POPC   C1B 7569   1.653  21.425   7.152
  631POPC   C2B 7570   1.310  21.264   6.969
  631POPC   C3B 7571   0.909  21.131   6.736
  631POPC   C4B 7572   0.655  20.980   6.289
  632POPC   NC3 7573  23.777  35.909   6.793
  632POPC   PO4 7574  24.029  35.925   7.094
  632POPC   GL1 7575  24.371  36.134   6.954
  632POPC   GL2 7576  24.142  36.324   6.894
  632POPC   C1A 7577  24.624  36.120   6.625
  632POPC   D2A 7578  24.987  36.303   6.322
  632POPC   C3A 7579  25.233  36.166   5.986
  632POPC   C4A 7580  25.646  36.294   5.824
  632POPC   C1B 7581  24.131  36.276   6.496
  632POPC   C2B 7582  24.394  36.304   6.225
  632POPC   C3B 7583  24.738  36.320   5.905
  632POPC   C4B 7584  25.079  36.340   5.573
  633POPC   NC3 7585  24.196   1.312   7.543
  633POPC   PO4 7586  24.541   1.342   7.356
  633POPC   GL1 7587  24.551   1.499   6.939
  633POPC   GL2 7588  24.664   1.716   7.014
  633POPC   C1A 7589  24.815   1.494   6.616
  633POPC   D2A 7590  24.973   1.535   6.165
  633POPC   C3A 7591  25.075   1.240   5.804
  633POPC   C4A 7592  25.148   0.975   5.377
  633POPC   C1B 7593  24.716   1.921   6.725
  633POPC   C2B 7594  24.770   2.018   6.288
  633POPC   C3B 7595  24.692   2.262   5.885
  633POPC   C4B 7596  24.459   2.364   5.396
  634PAPC   NC3 7597  33.707   7.896   7.714
  634PAPC   PO4 7598  34.070   7.722   7.707
  634PAPC   GL1 7599  34.298   7.647   7.394
  634PAPC   GL2 7600  34.415   7.792   7.280
  634PAPC   C1A 7601  34.092   7.535   7.095
  634PAPC   D2A 7602  33.818   7.626   6.816
  634PAPC   D3A 7603  33.734   7.306   6.657
  634PAPC   D4A 7604  33.848   6.940   6.937
  634PAPC   C5A 7605  34.013   6.878   7.335
  634PAPC   C1B 7606  34.522   7.673   6.933
  634PAPC   C2B 7607  34.767   7.748   6.671
  634PAPC   C3B 7608  34.918   7.694   6.207
  634PAPC   C4B 7609  35.054   7.673   5.763
  635PAPC   NC3 7610  28.256   5.962   7.534
  635PAPC   PO4 7611  28.535   5.688   7.563
  635PAPC   GL1 7612  28.327   5.560   7.358
  635PAPC   GL2 7613  28.034   5.592   7.346
  635PAPC   C1A 7614  28.292   5.300   7.124
  635PAPC   D2A 7615  28.607   5.161   6.922
  635PAPC   D3A 7616  28.651   5.135   6.437
  635PAPC   D4A 7617  28.905   5.014   6.107
  635PAPC   C5A 7618  28.687   5.347   5.888
  635PAPC   C1B 7619  27.952   5.572   6.974
  635PAPC   C2B 7620  27.861   5.618   6.571
  635PAPC   C3B 7621  27.792   5.585   6.106
  635PAPC   C4B 7622  27.778   5.770   5.606
  636PAPC   NC3 7623  23.079   9.039   7.766
  636PAPC   PO4 7624  23.221   8.663   7.751
  636PAPC   GL1 7625  22.965   8.324   7.620
  636PAPC   GL2 7626  23.166   8.437   7.358
  636PAPC   C1A 7627  22.744   8.061   7.439
  636PAPC   D2A 7628  22.816   7.726   7.239
  636PAPC   D3A 7629  23.244   7.576   7.134
  636PAPC   D4A 7630  23.620   7.761   7.009
  636PAPC   C5A 7631  23.635   7.873   6.511
  636PAPC   C1B 7632  23.217   8.334   7.012
  636PAPC   C2B 7633  23.246   8.525   6.674
  636PAPC   C3B 7634  23.205   8.878   6.370
  636PAPC   C4B 7635  23.474   9.068   5.986
  637PAPC   NC3 7636   0.018   5.324   7.846
  637PAPC   PO4 7637   0.025   5.223   7.464
  637PAPC   GL1 7638  -0.273   5.307   7.106
  637PAPC   GL2 7639  -0.020   5.358   7.044
  637PAPC   C1A 7640  -0.605   5.392   6.940
  637PAPC   D2A 7641  -0.994   5.297   7.039
  637PAPC   D3A 7642  -0.971   4.980   6.725
  637PAPC   D4A 7643  -1.051   5.022   6.332
  637PAPC   C5A 7644  -1.203   4.769   5.921
  637PAPC   C1B 7645  -0.018   5.365   6.660
  637PAPC   C2B 7646  -0.133   5.443   6.231
  637PAPC   C3B 7647  -0.217   5.625   5.747
  637PAPC   C4B 7648  -0.468   6.021   5.633
  638PAPC   NC3 7649  13.166  13.339   7.194
  638PAPC   PO4 7650  13.537  13.354   7.202
  638PAPC   GL1 7651  13.533  13.316   6.771
  638PAPC   GL2 7652  13.839  13.519   6.818
  638PAPC   C1A 7653  13.594  13.078   6.486
  638PAPC   D2A 7654  13.558  12.853   6.176
  638PAPC   D3A 7655  13.155  12.528   6.106
  638PAPC   D4A 7656  12.679  12.542   6.136
  638PAPC   C5A 7657  12.582  12.879   6.479
  638PAPC   C1B 7658  13.957  13.454   6.491
  638PAPC   C2B 7659  13.910  13.294   6.111
  638PAPC   C3B 7660  13.700  13.406   5.698
  638PAPC   C4B 7661  13.931  13.871   5.536
  639PAPC   NC3 7662   8.667   7.924   7.284
  639PAPC   PO4 7663   9.053   7.861   7.209
  639PAPC   GL1 7664   9.090   7.948   6.811
  639PAPC   GL2 7665   8.753   8.035   6.762
  639PAPC   C1A 7666   9.309   7.816   6.520
  639PAPC   D2A 7667   9.428   7.670   6.194
  639PAPC   D3A 7668   9.397   7.904   5.867
  639PAPC   D4A 7669   9.452   7.895   5.465
  639PAPC   C5A 7670   9.311   8.310   5.232
  639PAPC   C1B 7671   8.627   7.842   6.480
  639PAPC   C2B 7672   8.600   7.632   6.125
  639PAPC   C3B 7673   8.515   7.570   5.702
  639PAPC   C4B 7674   8.391   7.555   5.212
  640PAPC   NC3 7675  23.650   7.726   7.531
  640PAPC   PO4 7676  23.531   7.336   7.579
  640PAPC   GL1 7677  23.471   7.136   7.235
  640PAPC   GL2 7678  23.677   7.298   7.069
  640PAPC   C1A 7679  23.277   7.166   6.923
  640PAPC   D2A 7680  23.211   7.162   6.525
  640PAPC   D3A 7681  23.195   7.537   6.364
  640PAPC   D4A 7682  22.775   7.542   6.597
  640PAPC   C5A 7683  22.299   7.587   6.503
  640PAPC   C1B 7684  23.692   7.333   6.654
  640PAPC   C2B 7685  23.730   7.438   6.281
  640PAPC   C3B 7686  23.783   7.623   5.804
  640PAPC   C4B 7687  23.987   7.888   5.468
  641PAPC   NC3 7688   1.404   9.689   8.381
  641PAPC   PO4 7689   1.510   9.936   8.042
  641PAPC   GL1 7690   1.443   9.963   7.641
  641PAPC   GL2 7691   1.468   9.729   7.526
  641PAPC   C1A 7692   1.310  10.290   7.415
  641PAPC   D2A 7693   1.037  10.376   7.172
  641PAPC   D3A 7694   0.861  10.784   6.975
  641PAPC   D4A 7695   0.970  10.733   6.527
  641PAPC   C5A 7696   0.922  10.953   6.123
  641PAPC   C1B 7697   1.354   9.550   7.243
  641PAPC   C2B 7698   1.194   9.524   6.876
  641PAPC   C3B 7699   0.986   9.703   6.459
  641PAPC   C4B 7700   0.641   9.861   6.042
  642PAPC   NC3 7701   8.778  27.702   7.609
  642PAPC   PO4 7702   8.988  27.777   7.293
  642PAPC   GL1 7703   8.974  27.509   6.937
  642PAPC   GL2 7704   8.785  27.720   6.879
  642PAPC   C1A 7705   8.987  27.436   6.573
  642PAPC   D2A 7706   8.881  27.513   6.184
  642PAPC   D3A 7707   8.543  27.221   6.200
  642PAPC   D4A 7708   8.243  27.447   5.986
  642PAPC   C5A 7709   8.145  27.438   5.504
  642PAPC   C1B 7710   8.794  27.944   6.595
  642PAPC   C2B 7711   8.823  28.000   6.217
  642PAPC   C3B 7712   8.905  28.015   5.742
  642PAPC   C4B 7713   8.806  28.032   5.291
  643PAPC   NC3 7714   9.881  34.837   7.579
  643PAPC   PO4 7715   9.791  34.777   7.163
  643PAPC   GL1 7716   9.733  34.493   6.953
  643PAPC   GL2 7717   9.952  34.304   6.918
  643PAPC   C1A 7718   9.560  34.286   6.682
  643PAPC   D2A 7719   9.373  34.128   6.319
  643PAPC   D3A 7720   9.091  34.079   5.966
  643PAPC   D4A 7721   8.692  34.189   6.094
  643PAPC   C5A 7722   8.704  34.560   5.842
  643PAPC   C1B 7723  10.006  34.421   6.549
  643PAPC   C2B 7724   9.808  34.459   6.202
  643PAPC   C3B 7725   9.574  34.182   5.921
  643PAPC   C4B 7726   9.356  33.980   5.486
  644PAPC   NC3 7727  30.523  26.271   7.495
  644PAPC   PO4 7728  30.811  26.521   7.362
  644PAPC   GL1 7729  30.615  26.608   6.967
  644PAPC   GL2 7730  30.519  26.354   7.067
  644PAPC   C1A 7731  30.328  26.868   6.950
  644PAPC   D2A 7732  29.972  27.019   6.856
  644PAPC   D3A 7733  29.960  27.485   6.764
  644PAPC   D4A 7734  30.038  27.818   6.435
  644PAPC   C5A 7735  30.017  27.997   5.995
  644PAPC   C1B 7736  30.490  26.152   6.791
  644PAPC   C2B 7737  30.471  26.268   6.388
  644PAPC   C3B 7738  30.638  26.269   5.960
  644PAPC   C4B 7739  30.646  26.486   5.508
  645PAPC   NC3 7740   8.865   9.076   7.295
  645PAPC   PO4 7741   8.755   8.877   6.995
  645PAPC   GL1 7742   8.700   9.170   6.634
  645PAPC   GL2 7743   8.522   8.984   6.543
  645PAPC   C1A 7744   8.920   9.288   6.402
  645PAPC   D2A 7745   8.916   8.887   6.289
  645PAPC   D3A 7746   9.192   8.565   6.397
  645PAPC   D4A 7747   9.458   8.190   6.337
  645PAPC   C5A 7748   9.427   8.174   6.796
  645PAPC   C1B 7749   8.431   8.936   6.179
  645PAPC   C2B 7750   8.353   8.792   5.743
  645PAPC   C3B 7751   8.321   8.459   5.470
  645PAPC   C4B 7752   8.508   8.027   5.353
  646PAPC   NC3 7753  17.787   7.763   7.675
  646PAPC   PO4 7754  18.055   7.541   7.488
  646PAPC   GL1 7755  18.110   7.780   7.142
  646PAPC   GL2 7756  18.006   7.593   7.012
  646PAPC   C1A 7757  18.262   7.951   6.840
  646PAPC   D2A 7758  18.181   8.179   6.482
  646PAPC   D3A 7759  17.998   8.511   6.220
  646PAPC   D4A 7760  18.178   8.850   6.372
  646PAPC   C5A 7761  18.454   8.922   6.874
  646PAPC   C1B 7762  18.025   7.651   6.636
  646PAPC   C2B 7763  18.014   7.532   6.204
  646PAPC   C3B 7764  18.155   7.403   5.787
  646PAPC   C4B 7765  18.236   7.493   5.308
  647PAPC   NC3 7766  33.738   5.061   7.530
  647PAPC   PO4 7767  33.442   5.256   7.528
  647PAPC   GL1 7768  33.385   5.245   7.164
  647PAPC   GL2 7769  33.315   4.989   7.084
  647PAPC   C1A 7770  33.449   5.459   6.954
  647PAPC   D2A 7771  33.634   5.301   6.634
  647PAPC   D3A 7772  33.562   5.623   6.353
  647PAPC   D4A 7773  33.629   5.540   5.949
  647PAPC   C5A 7774  33.643   5.574   5.430
  647PAPC   C1B 7775  33.308   4.953   6.725
  647PAPC   C2B 7776  33.272   5.038   6.302
  647PAPC   C3B 7777  33.289   4.884   5.861
  647PAPC   C4B 7778  33.305   5.043   5.340
  648PAPC   NC3 7779   0.663  11.536   7.906
  648PAPC   PO4 7780   0.270  11.356   7.753
  648PAPC   GL1 7781   0.189  11.476   7.336
  648PAPC   GL2 7782  -0.093  11.483   7.317
  648PAPC   C1A 7783   0.409  11.461   7.010
  648PAPC   D2A 7784   0.704  11.507   6.773
  648PAPC   D3A 7785   0.821  11.800   6.524
  648PAPC   D4A 7786   0.996  11.930   6.139
  648PAPC   C5A 7787   1.334  11.636   5.964
  648PAPC   C1B 7788  -0.316  11.561   7.006
  648PAPC   C2B 7789  -0.253  11.689   6.647
  648PAPC   C3B 7790  -0.099  11.613   6.186
  648PAPC   C4B 7791  -0.262  11.700   5.719
  649PAPC   NC3 7792   4.145  12.352   7.908
  649PAPC   PO4 7793   4.303  12.037   7.737
  649PAPC   GL1 7794   4.451  12.065   7.345
  649PAPC   GL2 7795   4.476  11.822   7.274
  649PAPC   C1A 7796   4.654  12.380   7.183
  649PAPC   D2A 7797   4.821  12.745   7.375
  649PAPC   D3A 7798   4.757  12.881   6.957
  649PAPC   D4A 7799   4.918  13.187   6.713
  649PAPC   C5A 7800   4.969  13.224   6.223
  649PAPC   C1B 7801   4.505  11.803   6.884
  649PAPC   C2B 7802   4.506  12.066   6.593
  649PAPC   C3B 7803   4.765  12.121   6.124
  649PAPC   C4B 7804   4.945  11.872   5.776
  650PAPC   NC3 7805  13.761  24.838   7.442
  650PAPC   PO4 7806  13.642  24.612   7.181
  650PAPC   GL1 7807  13.726  24.861   6.761
  650PAPC   GL2 7808  13.615  25.170   6.799
  650PAPC   C1A 7809  13.984  24.792   6.459
  650PAPC   D2A 7810  14.025  24.538   6.121
  650PAPC   D3A 7811  13.978  24.487   5.661
  650PAPC   D4A 7812  14.039  24.514   5.245
  650PAPC   C5A 7813  14.109  24.339   4.818
  650PAPC   C1B 7814  13.658  25.494   6.623
  650PAPC   C2B 7815  13.778  25.663   6.243
  650PAPC   C3B 7816  13.852  25.794   5.805
  650PAPC   C4B 7817  13.851  25.892   5.334
  651PAPC   NC3 7818  33.359  12.021   7.100
  651PAPC   PO4 7819  33.734  11.945   7.062
  651PAPC   GL1 7820  33.769  11.902   6.619
  651PAPC   GL2 7821  33.504  11.917   6.607
  651PAPC   C1A 7822  33.984  12.104   6.371
  651PAPC   D2A 7823  34.102  12.143   5.962
  651PAPC   D3A 7824  34.447  12.110   5.637
  651PAPC   D4A 7825  34.875  12.207   5.495
  651PAPC   C5A 7826  35.224  12.505   5.490
  651PAPC   C1B 7827  33.392  12.193   6.357
  651PAPC   C2B 7828  33.321  12.290   5.957
  651PAPC   C3B 7829  33.011  12.294   5.589
  651PAPC   C4B 7830  32.578  12.471   5.458
  652PAPC   NC3 7831  28.867  27.179   7.661
  652PAPC   PO4 7832  29.205  27.182   7.471
  652PAPC   GL1 7833  29.174  27.542   7.179
  652PAPC   GL2 7834  29.202  27.308   6.973
  652PAPC   C1A 7835  29.140  27.875   7.085
  652PAPC   D2A 7836  28.969  28.128   6.813
  652PAPC   D3A 7837  28.904  28.044   6.365
  652PAPC   D4A 7838  28.884  28.264   5.967
  652PAPC   C5A 7839  29.139  28.140   5.661
  652PAPC   C1B 7840  28.953  27.264   6.735
  652PAPC   C2B 7841  28.775  27.411   6.440
  652PAPC   C3B 7842  28.979  27.627   6.070
  652PAPC   C4B 7843  28.736  27.824   5.758
  653PAPC   NC3 7844  20.688   5.674   6.842
  653PAPC   PO4 7845  20.464   5.879   7.090
  653PAPC   GL1 7846  20.306   6.107   6.811
  653PAPC   GL2 7847  20.520   6.063   6.614
  653PAPC   C1A 7848  19.961   6.030   6.683
  653PAPC   D2A 7849  19.658   6.266   6.458
  653PAPC   D3A 7850  19.807   5.954   6.154
  653PAPC   D4A 7851  20.237   5.828   6.352
  653PAPC   C5A 7852  20.374   5.930   5.915
  653PAPC   C1B 7853  20.585   6.230   6.278
  653PAPC   C2B 7854  20.507   6.418   5.904
  653PAPC   C3B 7855  20.252   6.783   5.709
  653PAPC   C4B 7856  20.165   7.168   5.431
  654PAPC   NC3 7857  14.176  21.805   7.552
  654PAPC   PO4 7858  13.956  22.136   7.499
  654PAPC   GL1 7859  13.879  22.231   7.180
  654PAPC   GL2 7860  14.090  22.393   7.070
  654PAPC   C1A 7861  13.933  21.955   6.913
  654PAPC   D2A 7862  14.042  21.762   6.568
  654PAPC   D3A 7863  13.797  21.546   6.302
  654PAPC   D4A 7864  13.566  21.295   5.946
  654PAPC   C5A 7865  13.756  21.231   5.537
  654PAPC   C1B 7866  14.163  22.226   6.700
  654PAPC   C2B 7867  14.230  22.131   6.335
  654PAPC   C3B 7868  14.149  21.769   5.994
  654PAPC   C4B 7869  14.196  21.541   5.605
  655PAPC   NC3 7870  26.481  26.301   7.936
  655PAPC   PO4 7871  26.580  26.221   7.549
  655PAPC   GL1 7872  26.794  25.964   7.333
  655PAPC   GL2 7873  26.630  25.914   7.183
  655PAPC   C1A 7874  26.985  26.063   6.996
  655PAPC   D2A 7875  27.174  25.779   6.851
  655PAPC   D3A 7876  27.184  25.770   6.416
  655PAPC   D4A 7877  26.991  25.508   6.162
  655PAPC   C5A 7878  27.199  25.746   5.919
  655PAPC   C1B 7879  26.624  25.809   6.807
  655PAPC   C2B 7880  26.679  25.822   6.402
  655PAPC   C3B 7881  26.642  25.803   5.963
  655PAPC   C4B 7882  26.507  25.771   5.515
  656PAPC   NC3 7883  14.354   8.517   7.905
  656PAPC   PO4 7884  14.348   8.130   7.815
  656PAPC   GL1 7885  14.207   7.999   7.441
  656PAPC   GL2 7886  14.321   7.779   7.346
  656PAPC   C1A 7887  13.901   8.066   7.262
  656PAPC   D2A 7888  13.753   8.066   6.861
  656PAPC   D3A 7889  13.911   8.259   6.493
  656PAPC   D4A 7890  14.265   8.545   6.545
  656PAPC   C5A 7891  14.227   8.768   6.995
  656PAPC   C1B 7892  14.218   7.745   6.970
  656PAPC   C2B 7893  14.101   7.559   6.552
  656PAPC   C3B 7894  13.954   7.578   6.114
  656PAPC   C4B 7895  13.740   7.676   5.717
  657PAPC   NC3 7896  32.504  32.633   8.125
  657PAPC   PO4 7897  32.584  32.399   7.793
  657PAPC   GL1 7898  32.528  32.601   7.323
  657PAPC   GL2 7899  32.343  32.374   7.361
  657PAPC   C1A 7900  32.465  32.567   6.923
  657PAPC   D2A 7901  32.673  32.560   6.624
  657PAPC   D3A 7902  33.006  32.335   6.406
  657PAPC   D4A 7903  33.097  32.039   6.093
  657PAPC   C5A 7904  33.189  31.660   5.825
  657PAPC   C1B 7905  32.316  32.203   7.061
  657PAPC   C2B 7906  32.272  32.240   6.628
  657PAPC   C3B 7907  32.034  32.043   6.307
  657PAPC   C4B 7908  31.861  31.846   5.847
  658PAPC   NC3 7909   7.495   4.455   7.936
  658PAPC   PO4 7910   7.418   4.443   7.545
  658PAPC   GL1 7911   7.268   4.643   7.193
  658PAPC   GL2 7912   7.301   4.944   7.109
  658PAPC   C1A 7913   7.312   4.458   6.892
  658PAPC   D2A 7914   7.383   4.536   6.494
  658PAPC   D3A 7915   6.949   4.522   6.690
  658PAPC   D4A 7916   6.646   4.610   6.409
  658PAPC   C5A 7917   6.972   4.497   6.163
  658PAPC   C1B 7918   7.165   4.902   6.748
  658PAPC   C2B 7919   7.167   4.921   6.366
  658PAPC   C3B 7920   7.167   4.922   5.880
  658PAPC   C4B 7921   7.251   4.869   5.378
  659PAPC   NC3 7922   7.263  34.618   7.304
  659PAPC   PO4 7923   7.343  34.367   7.023
  659PAPC   GL1 7924   7.149  34.520   6.757
  659PAPC   GL2 7925   6.854  34.320   6.757
  659PAPC   C1A 7926   7.392  34.429   6.488
  659PAPC   D2A 7927   7.339  34.680   6.177
  659PAPC   D3A 7928   7.210  34.718   5.786
  659PAPC   D4A 7929   6.869  34.561   5.495
  659PAPC   C5A 7930   6.508  34.411   5.250
  659PAPC   C1B 7931   6.939  34.339   6.379
  659PAPC   C2B 7932   6.853  34.271   5.953
  659PAPC   C3B 7933   6.818  34.025   5.505
  659PAPC   C4B 7934   6.707  33.908   5.012
  660PAPC   NC3 7935  19.539  17.084   7.299
  660PAPC   PO4 7936  19.728  17.366   7.520
  660PAPC   GL1 7937  19.794  17.650   7.304
  660PAPC   GL2 7938  19.684  17.579   7.111
  660PAPC   C1A 7939  20.048  17.916   7.230
  660PAPC   D2A 7940  20.399  18.170   7.220
  660PAPC   D3A 7941  20.832  18.212   7.225
  660PAPC   D4A 7942  21.084  17.867   7.055
  660PAPC   C5A 7943  21.455  17.777   7.161
  660PAPC   C1B 7944  19.785  17.803   6.852
  660PAPC   C2B 7945  19.959  17.822   6.462
  660PAPC   C3B 7946  19.946  17.873   5.952
  660PAPC   C4B 7947  19.677  18.038   5.533
  661PAPC   NC3 7948  26.777  29.045   7.025
  661PAPC   PO4 7949  26.742  28.719   7.263
  661PAPC   GL1 7950  26.869  28.621   6.871
  661PAPC   GL2 7951  26.614  28.682   6.755
  661PAPC   C1A 7952  27.134  28.467   6.648
  661PAPC   D2A 7953  27.413  28.294   6.427
  661PAPC   D3A 7954  27.816  28.364   6.223
  661PAPC   D4A 7955  27.939  28.318   5.805
  661PAPC   C5A 7956  27.717  28.585   5.446
  661PAPC   C1B 7957  26.535  28.731   6.400
  661PAPC   C2B 7958  26.516  28.776   5.979
  661PAPC   C3B 7959  26.324  28.973   5.557
  661PAPC   C4B 7960  26.309  28.873   5.085
  662PAPC   NC3 7961  10.833   6.397   7.542
  662PAPC   PO4 7962  11.013   6.502   7.211
  662PAPC   GL1 7963  11.182   6.396   6.813
  662PAPC   GL2 7964  10.901   6.327   6.769
  662PAPC   C1A 7965  11.518   6.407   6.655
  662PAPC   D2A 7966  11.626   6.341   6.300
  662PAPC   D3A 7967  11.752   6.264   5.846
  662PAPC   D4A 7968  11.944   6.190   5.412
  662PAPC   C5A 7969  11.940   5.793   5.077
  662PAPC   C1B 7970  10.716   6.264   6.444
  662PAPC   C2B 7971  10.695   6.213   6.045
  662PAPC   C3B 7972  10.867   6.444   5.621
  662PAPC   C4B 7973  10.889   6.734   5.275
  663PAPC   NC3 7974   9.422   9.587   7.689
  663PAPC   PO4 7975   9.014   9.502   7.555
  663PAPC   GL1 7976   9.070   9.615   7.145
  663PAPC   GL2 7977   8.840   9.840   7.144
  663PAPC   C1A 7978   9.157   9.412   6.829
  663PAPC   D2A 7979   9.293   9.069   6.565
  663PAPC   D3A 7980   9.399   8.967   6.146
  663PAPC   D4A 7981   9.462   9.014   5.700
  663PAPC   C5A 7982   9.791   8.843   5.445
  663PAPC   C1B 7983   8.612   9.831   6.904
  663PAPC   C2B 7984   8.471   9.651   6.522
  663PAPC   C3B 7985   8.401   9.424   6.149
  663PAPC   C4B 7986   8.160   9.350   5.714
  664PAPC   NC3 7987  27.204  33.999   7.453
  664PAPC   PO4 7988  27.224  33.661   7.243
  664PAPC   GL1 7989  26.938  33.560   6.961
  664PAPC   GL2 7990  27.140  33.733   6.836
  664PAPC   C1A 7991  26.870  33.310   6.733
  664PAPC   D2A 7992  26.924  33.173   6.423
  664PAPC   D3A 7993  26.765  33.256   5.991
  664PAPC   D4A 7994  26.521  33.142   5.620
  664PAPC   C5A 7995  26.279  33.308   5.196
  664PAPC   C1B 7996  27.147  33.676   6.491
  664PAPC   C2B 7997  27.084  33.702   6.086
  664PAPC   C3B 7998  27.097  33.940   5.656
  664PAPC   C4B 7999  26.885  34.035   5.305
  665PAPC   NC3 8000  10.856  15.856   7.893
  665PAPC   PO4 8001  10.550  15.974   7.644
  665PAPC   GL1 8002  10.571  15.852   7.197
  665PAPC   GL2 8003  10.442  15.643   7.243
  665PAPC   C1A 8004  10.690  15.877   6.874
  665PAPC   D2A 8005  10.679  15.629   6.562
  665PAPC   D3A 8006  10.883  15.605   6.156
  665PAPC   D4A 8007  11.363  15.616   6.168
  665PAPC   C5A 8008  11.523  15.409   5.755
  665PAPC   C1B 8009  10.318  15.638   6.856
  665PAPC   C2B 8010  10.066  15.704   6.493
  665PAPC   C3B 8011  10.415  15.778   6.193
  665PAPC   C4B 8012  10.655  15.856   5.775
  666PAPC   NC3 8013  18.207  15.215   7.560
  666PAPC   PO4 8014  18.232  14.818   7.683
  666PAPC   GL1 8015  18.168  14.682   7.345
  666PAPC   GL2 8016  18.029  14.891   7.182
  666PAPC   C1A 8017  18.224  14.492   7.055
  666PAPC   D2A 8018  18.322  14.486   6.683
  666PAPC   D3A 8019  18.418  14.674   6.276
  666PAPC   D4A 8020  18.374  14.398   5.923
  666PAPC   C5A 8021  18.304  13.989   5.605
  666PAPC   C1B 8022  18.050  15.248   7.087
  666PAPC   C2B 8023  17.822  15.406   6.766
  666PAPC   C3B 8024  17.532  15.653   6.461
  666PAPC   C4B 8025  17.177  15.803   6.151
  667PAPC   NC3 8026   0.156  28.495   6.909
  667PAPC   PO4 8027   0.135  28.882   7.071
  667PAPC   GL1 8028   0.014  29.300   6.931
  667PAPC   GL2 8029  -0.292  29.150   6.888
  667PAPC   C1A 8030   0.070  29.535   6.669
  667PAPC   D2A 8031   0.023  29.283   6.356
  667PAPC   D3A 8032   0.260  29.528   6.184
  667PAPC   D4A 8033   0.339  29.575   5.748
  667PAPC   C5A 8034  -0.002  29.803   5.587
  667PAPC   C1B 8035  -0.357  29.182   6.498
  667PAPC   C2B 8036  -0.352  29.231   6.085
  667PAPC   C3B 8037  -0.138  29.237   5.618
  667PAPC   C4B 8038   0.173  29.287   5.223
  668PAPC   NC3 8039  22.212  11.564   7.132
  668PAPC   PO4 8040  21.872  11.675   7.223
  668PAPC   GL1 8041  21.669  11.982   7.012
  668PAPC   GL2 8042  21.471  11.780   7.120
  668PAPC   C1A 8043  21.647  12.078   6.701
  668PAPC   D2A 8044  21.562  12.047   6.306
  668PAPC   D3A 8045  21.189  12.034   6.056
  668PAPC   D4A 8046  21.439  11.950   5.748
  668PAPC   C5A 8047  21.407  11.867   5.279
  668PAPC   C1B 8048  21.229  11.803   6.822
  668PAPC   C2B 8049  21.017  11.896   6.509
  668PAPC   C3B 8050  20.684  11.905   6.210
  668PAPC   C4B 8051  20.611  12.055   5.790
  669PAPC   NC3 8052   3.345  28.473   7.151
  669PAPC   PO4 8053   2.958  28.514   7.136
  669PAPC   GL1 8054   2.774  28.612   6.732
  669PAPC   GL2 8055   3.124  28.546   6.647
  669PAPC   C1A 8056   2.505  28.540   6.527
  669PAPC   D2A 8057   2.124  28.503   6.571
  669PAPC   D3A 8058   2.173  28.690   6.230
  669PAPC   D4A 8059   1.850  28.794   5.915
  669PAPC   C5A 8060   1.606  28.710   5.485
  669PAPC   C1B 8061   2.951  28.697   6.316
  669PAPC   C2B 8062   2.921  28.739   5.888
  669PAPC   C3B 8063   2.937  28.923   5.408
  669PAPC   C4B 8064   2.874  28.854   4.953
  670PAPC   NC3 8065  22.479  25.574   7.832
  670PAPC   PO4 8066  22.391  25.716   7.458
  670PAPC   GL1 8067  22.054  25.618   7.204
  670PAPC   GL2 8068  22.309  25.681   6.987
  670PAPC   C1A 8069  21.821  25.498   6.993
  670PAPC   D2A 8070  21.740  25.510   6.618
  670PAPC   D3A 8071  21.805  25.453   6.153
  670PAPC   D4A 8072  21.636  25.668   5.775
  670PAPC   C5A 8073  21.318  25.791   5.370
  670PAPC   C1B 8074  22.160  25.435   6.715
  670PAPC   C2B 8075  22.060  25.100   6.474
  670PAPC   C3B 8076  21.789  24.954   6.114
  670PAPC   C4B 8077  21.698  24.830   5.649
  671PAPC   NC3 8078  33.467  26.185   7.556
  671PAPC   PO4 8079  33.190  26.390   7.727
  671PAPC   GL1 8080  33.391  26.613   7.395
  671PAPC   GL2 8081  33.180  26.535   7.143
  671PAPC   C1A 8082  33.712  26.772   7.330
  671PAPC   D2A 8083  34.061  26.672   7.216
  671PAPC   D3A 8084  34.354  26.477   6.925
  671PAPC   D4A 8085  34.164  26.699   6.551
  671PAPC   C5A 8086  34.404  26.653   6.092
  671PAPC   C1B 8087  33.119  26.601   6.788
  671PAPC   C2B 8088  33.171  26.819   6.510
  671PAPC   C3B 8089  33.137  27.030   6.141
  671PAPC   C4B 8090  33.198  27.064   5.698
  672PAPC   NC3 8091  23.563  17.270   7.495
  672PAPC   PO4 8092  23.846  17.053   7.624
  672PAPC   GL1 8093  24.062  16.824   7.289
  672PAPC   GL2 8094  24.107  17.182   7.244
  672PAPC   C1A 8095  24.081  16.465   7.204
  672PAPC   D2A 8096  24.276  16.119   7.268
  672PAPC   D3A 8097  24.615  15.890   7.126
  672PAPC   D4A 8098  24.891  15.549   6.955
  672PAPC   C5A 8099  25.274  15.721   6.797
  672PAPC   C1B 8100  24.214  17.236   6.911
  672PAPC   C2B 8101  24.226  17.181   6.496
  672PAPC   C3B 8102  24.257  16.917   6.047
  672PAPC   C4B 8103  24.375  16.533   5.743
  673PAPC   NC3 8104  18.446  25.847   8.017
  673PAPC   PO4 8105  18.492  25.759   7.631
  673PAPC   GL1 8106  18.852  25.576   7.383
  673PAPC   GL2 8107  18.697  25.333   7.482
  673PAPC   C1A 8108  19.099  25.395   7.260
  673PAPC   D2A 8109  19.286  25.467   6.945
  673PAPC   D3A 8110  19.465  25.315   6.552
  673PAPC   D4A 8111  19.627  25.082   6.235
  673PAPC   C5A 8112  20.015  25.281   5.994
  673PAPC   C1B 8113  18.768  25.041   7.242
  673PAPC   C2B 8114  18.764  24.876   6.838
  673PAPC   C3B 8115  18.823  24.681   6.395
  673PAPC   C4B 8116  18.898  24.654   5.894
  674PAPC   NC3 8117   6.258   5.061   7.005
  674PAPC   PO4 8118   5.950   4.875   7.168
  674PAPC   GL1 8119   5.881   4.799   6.795
  674PAPC   GL2 8120   6.032   4.481   6.803
  674PAPC   C1A 8121   5.909   5.148   6.702
  674PAPC   D2A 8122   5.691   5.450   6.645
  674PAPC   D3A 8123   5.711   5.592   6.195
  674PAPC   D4A 8124   5.895   5.927   5.966
  674PAPC   C5A 8125   5.990   6.142   5.543
  674PAPC   C1B 8126   5.909   4.480   6.455
  674PAPC   C2B 8127   6.020   4.282   6.026
  674PAPC   C3B 8128   5.934   4.037   5.593
  674PAPC   C4B 8129   6.186   3.994   5.189
  675PAPC   NC3 8130  16.248  28.432   7.154
  675PAPC   PO4 8131  15.990  28.619   7.394
  675PAPC   GL1 8132  15.653  28.745   7.080
  675PAPC   GL2 8133  15.787  28.373   6.937
  675PAPC   C1A 8134  15.582  29.017   6.848
  675PAPC   D2A 8135  15.654  29.024   6.467
  675PAPC   D3A 8136  15.867  28.703   6.221
  675PAPC   D4A 8137  15.607  28.582   5.887
  675PAPC   C5A 8138  15.397  29.032   5.974
  675PAPC   C1B 8139  15.589  28.573   6.645
  675PAPC   C2B 8140  15.290  28.740   6.405
  675PAPC   C3B 8141  14.919  28.849   6.135
  675PAPC   C4B 8142  14.720  28.468   5.816
  676PAPC   NC3 8143   8.443  30.360   7.189
  676PAPC   PO4 8144   8.536  30.728   7.235
  676PAPC   GL1 8145   8.688  30.829   6.849
  676PAPC   GL2 8146   8.813  30.524   6.848
  676PAPC   C1A 8147   8.671  31.024   6.530
  676PAPC   D2A 8148   9.020  31.126   6.381
  676PAPC   D3A 8149   9.318  30.997   6.066
  676PAPC   D4A 8150   9.484  30.957   5.675
  676PAPC   C5A 8151   9.834  30.839   5.443
  676PAPC   C1B 8152   8.871  30.591   6.501
  676PAPC   C2B 8153   8.910  30.623   6.135
  676PAPC   C3B 8154   9.146  30.573   5.681
  676PAPC   C4B 8155   9.403  30.508   5.339
  677PAPC   NC3 8156  25.357   1.147   7.306
  677PAPC   PO4 8157  25.489   0.772   7.254
  677PAPC   GL1 8158  25.638   0.506   7.013
  677PAPC   GL2 8159  25.431   0.294   7.041
  677PAPC   C1A 8160  25.733   0.498   6.663
  677PAPC   D2A 8161  25.652   0.493   6.312
  677PAPC   D3A 8162  25.820   0.701   5.946
  677PAPC   D4A 8163  25.852   0.668   5.462
  677PAPC   C5A 8164  25.492   0.458   5.249
  677PAPC   C1B 8165  25.394   0.163   6.678
  677PAPC   C2B 8166  25.318  -0.143   6.399
  677PAPC   C3B 8167  25.206  -0.329   5.991
  677PAPC   C4B 8168  25.226  -0.228   5.582
  678PAPC   NC3 8169  18.584   5.894   7.811
  678PAPC   PO4 8170  18.865   6.165   7.740
  678PAPC   GL1 8171  18.963   6.050   7.371
  678PAPC   GL2 8172  18.729   5.865   7.290
  678PAPC   C1A 8173  18.987   6.353   7.218
  678PAPC   D2A 8174  19.111   6.511   6.866
  678PAPC   D3A 8175  19.155   6.380   6.406
  678PAPC   D4A 8176  19.280   5.992   6.142
  678PAPC   C5A 8177  19.051   5.581   6.241
  678PAPC   C1B 8178  18.612   5.808   6.922
  678PAPC   C2B 8179  18.559   5.824   6.504
  678PAPC   C3B 8180  18.772   6.129   6.152
  678PAPC   C4B 8181  18.989   6.156   5.734
  679PAPC   NC3 8182   3.698   9.776   7.506
  679PAPC   PO4 8183   3.745  10.160   7.654
  679PAPC   GL1 8184   3.945  10.221   7.372
  679PAPC   GL2 8185   3.702  10.204   7.200
  679PAPC   C1A 8186   4.298  10.200   7.279
  679PAPC   D2A 8187   4.666  10.153   7.222
  679PAPC   D3A 8188   4.932  10.000   6.861
  679PAPC   D4A 8189   4.950   9.981   6.459
  679PAPC   C5A 8190   4.639   9.755   6.108
  679PAPC   C1B 8191   3.592  10.149   6.847
  679PAPC   C2B 8192   3.338  10.155   6.514
  679PAPC   C3B 8193   3.033  10.208   6.166
  679PAPC   C4B 8194   2.930  10.353   5.630
  680PAPC   NC3 8195   0.684   0.072   7.399
  680PAPC   PO4 8196   0.660   0.400   7.190
  680PAPC   GL1 8197   0.647   0.265   6.778
  680PAPC   GL2 8198   0.484   0.535   6.653
  680PAPC   C1A 8199   0.590   0.157   6.460
  680PAPC   D2A 8200   0.574   0.120   6.087
  680PAPC   D3A 8201   0.778   0.438   5.783
  680PAPC   D4A 8202   1.158   0.573   5.532
  680PAPC   C5A 8203   1.181   0.657   5.065
  680PAPC   C1B 8204   0.789   0.651   6.381
  680PAPC   C2B 8205   1.162   0.615   6.214
  680PAPC   C3B 8206   1.701   0.669   6.165
  680PAPC   C4B 8207   1.840   0.760   6.614
  681PAPC   NC3 8208  23.211  33.997   7.497
  681PAPC   PO4 8209  23.063  33.639   7.461
  681PAPC   GL1 8210  22.937  33.596   7.085
  681PAPC   GL2 8211  22.783  33.356   7.035
  681PAPC   C1A 8212  23.120  33.775   6.857
  681PAPC   D2A 8213  23.434  33.645   6.634
  681PAPC   D3A 8214  23.396  33.658   6.147
  681PAPC   D4A 8215  23.490  33.320   5.883
  681PAPC   C5A 8216  23.778  33.024   5.658
  681PAPC   C1B 8217  22.596  33.251   6.745
  681PAPC   C2B 8218  22.518  33.200   6.315
  681PAPC   C3B 8219  22.482  33.173   5.792
  681PAPC   C4B 8220  22.454  33.317   5.389
  682PAPC   NC3 8221  29.791   6.317   7.217
  682PAPC   PO4 8222  29.864   6.731   7.223
  682PAPC   GL1 8223  29.905   6.918   6.820
  682PAPC   GL2 8224  29.847   7.177   6.922
  682PAPC   C1A 8225  30.113   6.766   6.586
  682PAPC   D2A 8226  30.222   6.833   6.196
  682PAPC   D3A 8227  30.011   7.035   5.809
  682PAPC   D4A 8228  29.872   7.266   5.454
  682PAPC   C5A 8229  29.549   7.010   5.162
  682PAPC   C1B 8230  29.893   7.356   6.571
  682PAPC   C2B 8231  29.718   7.606   6.264
  682PAPC   C3B 8232  29.641   7.655   5.710
  682PAPC   C4B 8233  29.533   7.599   5.229
  683PAPC   NC3 8234  32.339  16.640   7.451
  683PAPC   PO4 8235  32.140  17.024   7.469
  683PAPC   GL1 8236  32.186  17.209   7.095
  683PAPC   GL2 8237  32.464  17.043   7.120
  683PAPC   C1A 8238  32.095  17.298   6.742
  683PAPC   D2A 8239  32.210  17.426   6.361
  683PAPC   D3A 8240  31.942  17.213   6.079
  683PAPC   D4A 8241  32.045  16.829   5.908
  683PAPC   C5A 8242  31.688  16.819   5.577
  683PAPC   C1B 8243  32.517  16.712   6.990
  683PAPC   C2B 8244  32.594  16.471   6.695
  683PAPC   C3B 8245  32.619  16.338   6.240
  683PAPC   C4B 8246  32.841  16.347   5.803
  684PAPC   NC3 8247  20.303  30.312   7.998
  684PAPC   PO4 8248  20.113  30.319   7.656
  684PAPC   GL1 8249  20.221  30.335   7.150
  684PAPC   GL2 8250  20.524  30.462   7.210
  684PAPC   C1A 8251  20.047  30.310   6.815
  684PAPC   D2A 8252  20.039  30.318   6.405
  684PAPC   D3A 8253  19.875  30.049   6.078
  684PAPC   D4A 8254  19.555  29.933   5.787
  684PAPC   C5A 8255  19.168  29.618   5.837
  684PAPC   C1B 8256  20.712  30.510   6.884
  684PAPC   C2B 8257  20.855  30.727   6.560
  684PAPC   C3B 8258  20.958  30.816   6.128
  684PAPC   C4B 8259  21.091  31.071   5.733
  685PAPC   NC3 8260  20.326  15.978   7.097
  685PAPC   PO4 8261  20.143  15.606   7.143
  685PAPC   GL1 8262  19.872  15.422   6.835
  685PAPC   GL2 8263  19.978  15.734   6.764
  685PAPC   C1A 8264  19.599  15.557   6.585
  685PAPC   D2A 8265  19.227  15.401   6.422
  685PAPC   D3A 8266  19.344  15.254   6.029
  685PAPC   D4A 8267  19.663  14.887   5.993
  685PAPC   C5A 8268  19.602  15.010   5.522
  685PAPC   C1B 8269  19.838  15.980   6.496
  685PAPC   C2B 8270  19.827  15.941   6.112
  685PAPC   C3B 8271  19.747  15.997   5.607
  685PAPC   C4B 8272  19.720  15.721   5.187
  686PAPC   NC3 8273   8.889  34.936   6.735
  686PAPC   PO4 8274   8.601  34.693   6.770
  686PAPC   GL1 8275   8.573  34.400   6.469
  686PAPC   GL2 8276   8.644  34.202   6.597
  686PAPC   C1A 8277   8.321  34.372   6.252
  686PAPC   D2A 8278   8.168  34.283   5.909
  686PAPC   D3A 8279   8.351  34.182   5.475
  686PAPC   D4A 8280   8.816  34.208   5.452
  686PAPC   C5A 8281   8.770  34.653   5.392
  686PAPC   C1B 8282   8.870  33.940   6.471
  686PAPC   C2B 8283   9.127  33.679   6.261
  686PAPC   C3B 8284   9.116  33.451   5.877
  686PAPC   C4B 8285   9.470  33.127   5.699
  687PAPC   NC3 8286  32.057  32.756   7.547
  687PAPC   PO4 8287  32.187  33.010   7.238
  687PAPC   GL1 8288  31.968  33.079   6.870
  687PAPC   GL2 8289  32.020  33.375   6.935
  687PAPC   C1A 8290  31.997  33.033   6.512
  687PAPC   D2A 8291  32.065  33.061   6.124
  687PAPC   D3A 8292  32.067  33.070   5.600
  687PAPC   D4A 8293  32.425  32.938   5.265
  687PAPC   C5A 8294  32.434  33.037   4.789
  687PAPC   C1B 8295  32.063  33.515   6.588
  687PAPC   C2B 8296  32.192  33.545   6.213
  687PAPC   C3B 8297  32.151  33.698   5.775
  687PAPC   C4B 8298  31.987  33.791   5.342
  688PAPC   NC3 8299  24.439  11.574   7.820
  688PAPC   PO4 8300  24.422  11.307   7.525
  688PAPC   GL1 8301  24.645  11.133   7.220
  688PAPC   GL2 8302  24.433  10.914   7.113
  688PAPC   C1A 8303  24.878  11.354   6.940
  688PAPC   D2A 8304  25.138  11.567   6.794
  688PAPC   D3A 8305  25.479  11.503   6.466
  688PAPC   D4A 8306  25.591  11.264   6.126
  688PAPC   C5A 8307  25.801  11.301   5.619
  688PAPC   C1B 8308  24.354  10.686   6.826
  688PAPC   C2B 8309  24.301  10.753   6.433
  688PAPC   C3B 8310  24.328  10.900   5.974
  688PAPC   C4B 8311  24.603  11.146   5.723
  689PAPC   NC3 8312  10.009  20.871   6.917
  689PAPC   PO4 8313  10.223  20.537   7.024
  689PAPC   GL1 8314  10.163  20.208   6.818
  689PAPC   GL2 8315  10.170  20.416   6.596
  689PAPC   C1A 8316  10.028  19.899   6.636
  689PAPC   D2A 8317  10.061  19.630   6.392
  689PAPC   D3A 8318   9.887  19.752   5.971
  689PAPC   D4A 8319   9.923  19.631   5.534
  689PAPC   C5A 8320   9.787  19.850   5.181
  689PAPC   C1B 8321  10.090  20.242   6.282
  689PAPC   C2B 8322  10.058  20.197   5.843
  689PAPC   C3B 8323  10.256  20.071   5.427
  689PAPC   C4B 8324  10.360  19.731   5.097
  690PAPC   NC3 8325  34.000  33.600   7.520
  690PAPC   PO4 8326  34.281  33.334   7.323
  690PAPC   GL1 8327  34.277  33.051   6.930
  690PAPC   GL2 8328  34.111  33.213   6.904
  690PAPC   C1A 8329  34.297  32.961   6.583
  690PAPC   D2A 8330  34.373  32.761   6.251
  690PAPC   D3A 8331  34.419  32.550   5.915
  690PAPC   D4A 8332  34.361  32.099   5.806
  690PAPC   C5A 8333  34.815  31.958   5.582
  690PAPC   C1B 8334  33.820  33.303   6.680
  690PAPC   C2B 8335  33.765  33.328   6.270
  690PAPC   C3B 8336  33.679  33.238   5.825
  690PAPC   C4B 8337  33.914  33.049   5.435
  691PAPC   NC3 8338  33.409  18.996   7.867
  691PAPC   PO4 8339  33.385  18.614   7.952
  691PAPC   GL1 8340  33.555  18.348   7.638
  691PAPC   GL2 8341  33.435  18.146   7.696
  691PAPC   C1A 8342  33.532  18.347   7.266
  691PAPC   D2A 8343  33.432  18.507   6.876
  691PAPC   D3A 8344  33.392  18.890   6.613
  691PAPC   D4A 8345  33.517  19.057   6.263
  691PAPC   C5A 8346  33.380  18.949   5.808
  691PAPC   C1B 8347  33.613  17.893   7.487
  691PAPC   C2B 8348  33.816  17.994   7.141
  691PAPC   C3B 8349  34.154  18.018   6.880
  691PAPC   C4B 8350  34.636  18.079   6.771
  692PAPC   NC3 8351  21.077  29.024   7.375
  692PAPC   PO4 8352  21.353  29.160   7.182
  692PAPC   GL1 8353  21.405  29.270   6.804
  692PAPC   GL2 8354  21.356  29.558   6.758
  692PAPC   C1A 8355  21.401  28.943   6.581
  692PAPC   D2A 8356  21.343  28.531   6.477
  692PAPC   D3A 8357  21.518  28.598   6.008
  692PAPC   D4A 8358  21.645  28.720   5.532
  692PAPC   C5A 8359  21.815  28.331   5.265
  692PAPC   C1B 8360  21.152  29.667   6.452
  692PAPC   C2B 8361  20.900  29.767   6.182
  692PAPC   C3B 8362  21.026  30.015   5.782
  692PAPC   C4B 8363  21.170  30.263   5.398
  693PAPC   NC3 8364  17.313   5.294   8.098
  693PAPC   PO4 8365  17.199   4.930   7.923
  693PAPC   GL1 8366  17.276   4.750   7.611
  693PAPC   GL2 8367  17.108   4.565   7.502
  693PAPC   C1A 8368  17.470   4.830   7.268
  693PAPC   D2A 8369  17.614   5.070   6.923
  693PAPC   D3A 8370  17.896   5.232   6.656
  693PAPC   D4A 8371  18.194   5.420   6.343
  693PAPC   C5A 8372  18.200   5.804   6.100
  693PAPC   C1B 8373  17.132   4.669   7.147
  693PAPC   C2B 8374  17.279   4.704   6.798
  693PAPC   C3B 8375  17.286   4.661   6.361
  693PAPC   C4B 8376  17.301   4.607   5.882
  694PAPC   NC3 8377  16.146  35.527   7.330
  694PAPC   PO4 8378  16.362  35.848   7.327
  694PAPC   GL1 8379  16.422  35.814   6.897
  694PAPC   GL2 8380  16.208  35.681   6.882
  694PAPC   C1A 8381  16.670  36.020   6.718
  694PAPC   D2A 8382  16.644  36.266   6.461
  694PAPC   D3A 8383  16.624  36.152   5.992
  694PAPC   D4A 8384  16.492  35.728   5.984
  694PAPC   C5A 8385  16.304  35.834   6.425
  694PAPC   C1B 8386  15.936  35.818   6.714
  694PAPC   C2B 8387  15.840  35.922   6.308
  694PAPC   C3B 8388  15.821  35.884   5.834
  694PAPC   C4B 8389  15.796  36.148   5.445
  695PAPC   NC3 8390  10.917  18.488   6.951
  695PAPC   PO4 8391  11.113  18.154   7.051
  695PAPC   GL1 8392  10.907  17.936   6.732
  695PAPC   GL2 8393  10.657  18.173   6.798
  695PAPC   C1A 8394  11.010  17.577   6.726
  695PAPC   D2A 8395  11.300  17.319   6.575
  695PAPC   D3A 8396  10.962  17.120   6.408
  695PAPC   D4A 8397  10.564  17.224   6.231
  695PAPC   C5A 8398  10.228  16.981   6.370
  695PAPC   C1B 8399  10.632  18.301   6.497
  695PAPC   C2B 8400  10.548  18.372   6.117
  695PAPC   C3B 8401  10.728  18.425   5.608
  695PAPC   C4B 8402  10.768  18.444   5.177
  696PAPC   NC3 8403  29.385  32.648   7.148
  696PAPC   PO4 8404  29.737  32.501   7.212
  696PAPC   GL1 8405  30.018  32.537   6.878
  696PAPC   GL2 8406  30.018  32.254   6.836
  696PAPC   C1A 8407  30.277  32.663   6.675
  696PAPC   D2A 8408  30.635  32.632   6.489
  696PAPC   D3A 8409  30.575  32.517   6.032
  696PAPC   D4A 8410  30.313  32.197   6.233
  696PAPC   C5A 8411  30.459  32.269   6.718
  696PAPC   C1B 8412  30.093  31.925   6.543
  696PAPC   C2B 8413  30.096  31.755   6.171
  696PAPC   C3B 8414  30.133  31.532   5.749
  696PAPC   C4B 8415  30.193  31.458   5.222
  697PAPC   NC3 8416  31.008  15.710   7.199
  697PAPC   PO4 8417  30.897  15.349   7.332
  697PAPC   GL1 8418  31.136  14.931   7.253
  697PAPC   GL2 8419  31.354  15.088   7.148
  697PAPC   C1A 8420  31.071  14.697   6.976
  697PAPC   D2A 8421  31.083  14.548   6.601
  697PAPC   D3A 8422  31.011  14.386   6.127
  697PAPC   D4A 8423  30.645  14.452   5.867
  697PAPC   C5A 8424  30.802  14.333   5.466
  697PAPC   C1B 8425  31.180  15.170   6.802
  697PAPC   C2B 8426  30.979  15.023   6.479
  697PAPC   C3B 8427  30.948  14.955   5.987
  697PAPC   C4B 8428  30.706  14.835   5.520
  698PAPC   NC3 8429   2.726  28.935   7.038
  698PAPC   PO4 8430   2.804  29.226   7.285
  698PAPC   GL1 8431   2.877  29.553   7.035
  698PAPC   GL2 8432   2.966  29.394   6.866
  698PAPC   C1A 8433   2.762  29.895   6.954
  698PAPC   D2A 8434   2.374  30.038   6.837
  698PAPC   D3A 8435   2.130  30.342   6.973
  698PAPC   D4A 8436   2.197  30.530   6.568
  698PAPC   C5A 8437   2.178  30.930   6.864
  698PAPC   C1B 8438   2.758  29.548   6.611
  698PAPC   C2B 8439   2.713  29.688   6.227
  698PAPC   C3B 8440   2.466  29.731   5.892
  698PAPC   C4B 8441   2.106  29.795   5.590
  699PAPC   NC3 8442   2.332  31.989   8.298
  699PAPC   PO4 8443   2.008  32.154   8.202
  699PAPC   GL1 8444   1.956  32.149   7.835
  699PAPC   GL2 8445   2.170  32.004   7.783
  699PAPC   C1A 8446   1.670  32.010   7.643
  699PAPC   D2A 8447   1.557  32.270   7.343
  699PAPC   D3A 8448   1.930  32.451   7.448
  699PAPC   D4A 8449   1.909  32.401   6.971
  699PAPC   C5A 8450   1.986  32.340   6.508
  699PAPC   C1B 8451   2.154  32.072   7.441
  699PAPC   C2B 8452   2.161  31.957   7.043
  699PAPC   C3B 8453   2.249  31.894   6.629
  699PAPC   C4B 8454   2.146  32.003   6.177
  700PAPC   NC3 8455   3.049  30.343   7.364
  700PAPC   PO4 8456   3.232  30.664   7.350
  700PAPC   GL1 8457   3.136  30.593   6.980
  700PAPC   GL2 8458   3.242  30.330   6.909
  700PAPC   C1A 8459   3.040  30.664   6.605
  700PAPC   D2A 8460   3.199  30.484   6.346
  700PAPC   D3A 8461   3.160  30.641   5.869
  700PAPC   D4A 8462   2.798  30.929   5.961
  700PAPC   C5A 8463   2.684  30.535   5.877
  700PAPC   C1B 8464   3.039  30.155   6.623
  700PAPC   C2B 8465   3.027  30.068   6.216
  700PAPC   C3B 8466   2.879  30.028   5.790
  700PAPC   C4B 8467   2.944  30.047   5.273
  701PAPC   NC3 8468   6.254   7.793   7.644
  701PAPC   PO4 8469   6.471   7.848   7.304
  701PAPC   GL1 8470   6.641   8.177   6.968
  701PAPC   GL2 8471   6.411   8.301   6.995
  701PAPC   C1A 8472   6.868   8.275   6.697
  701PAPC   D2A 8473   6.810   8.264   6.263
  701PAPC   D3A 8474   6.587   7.861   6.325
  701PAPC   D4A 8475   6.779   7.743   5.941
  701PAPC   C5A 8476   6.957   8.095   5.667
  701PAPC   C1B 8477   6.362   8.289   6.635
  701PAPC   C2B 8478   6.232   8.277   6.254
  701PAPC   C3B 8479   5.949   8.251   5.896
  701PAPC   C4B 8480   6.029   8.134   5.422
  702PAPC   NC3 8481  34.939  12.295   7.657
  702PAPC   PO4 8482  35.221  12.501   7.859
  702PAPC   GL1 8483  35.391  12.578   7.528
  702PAPC   GL2 8484  35.285  12.827   7.430
  702PAPC   C1A 8485  35.494  12.393   7.230
  702PAPC   D2A 8486  35.584  12.010   7.226
  702PAPC   D3A 8487  35.374  11.816   6.922
  702PAPC   D4A 8488  35.012  11.662   6.691
  702PAPC   C5A 8489  34.877  11.185   6.779
  702PAPC   C1B 8490  35.486  12.908   7.121
  702PAPC   C2B 8491  35.521  12.785   6.705
  702PAPC   C3B 8492  35.456  12.764   6.239
  702PAPC   C4B 8493  35.217  12.878   5.841
  703PAPC   NC3 8494   2.654  26.285   8.171
  703PAPC   PO4 8495   2.489  25.986   7.990
  703PAPC   GL1 8496   2.496  26.091   7.643
  703PAPC   GL2 8497   2.762  25.994   7.555
  703PAPC   C1A 8498   2.432  26.282   7.309
  703PAPC   D2A 8499   2.354  26.598   7.122
  703PAPC   D3A 8500   2.473  26.392   6.700
  703PAPC   D4A 8501   2.106  26.199   6.612
  703PAPC   C5A 8502   1.854  26.487   6.352
  703PAPC   C1B 8503   2.658  25.890   7.207
  703PAPC   C2B 8504   2.555  25.872   6.798
  703PAPC   C3B 8505   2.550  26.092   6.325
  703PAPC   C4B 8506   2.874  26.450   6.165
  704PAPC   NC3 8507  23.624  28.858   7.308
  704PAPC   PO4 8508  23.496  29.214   7.244
  704PAPC   GL1 8509  23.309  29.246   6.934
  704PAPC   GL2 8510  23.550  29.388   6.742
  704PAPC   C1A 8511  22.994  29.113   6.792
  704PAPC   D2A 8512  22.733  28.861   6.571
  704PAPC   D3A 8513  22.570  28.751   6.173
  704PAPC   D4A 8514  22.644  28.726   5.752
  704PAPC   C5A 8515  22.500  28.710   5.306
  704PAPC   C1B 8516  23.594  29.392   6.368
  704PAPC   C2B 8517  23.554  29.416   5.955
  704PAPC   C3B 8518  23.472  29.455   5.503
  704PAPC   C4B 8519  23.587  29.383   4.986
  705PAPC   NC3 8520  19.530   8.118   7.993
  705PAPC   PO4 8521  19.647   8.203   7.624
  705PAPC   GL1 8522  19.706   8.470   7.403
  705PAPC   GL2 8523  19.454   8.481   7.180
  705PAPC   C1A 8524  19.701   8.853   7.499
  705PAPC   D2A 8525  19.915   9.094   7.211
  705PAPC   D3A 8526  19.875   8.902   6.806
  705PAPC   D4A 8527  19.753   8.917   6.386
  705PAPC   C5A 8528  19.346   8.786   6.143
  705PAPC   C1B 8529  19.343   8.240   6.895
  705PAPC   C2B 8530  19.242   7.966   6.594
  705PAPC   C3B 8531  19.250   8.008   6.147
  705PAPC   C4B 8532  19.365   8.320   5.841
  706PAPC   NC3 8533   7.516  34.869   6.989
  706PAPC   PO4 8534   7.156  35.050   7.039
  706PAPC   GL1 8535   7.015  34.948   6.717
  706PAPC   GL2 8536   6.736  34.942   6.645
  706PAPC   C1A 8537   7.196  35.171   6.464
  706PAPC   D2A 8538   7.276  35.212   6.070
  706PAPC   D3A 8539   7.330  35.379   5.690
  706PAPC   D4A 8540   7.113  35.637   5.385
  706PAPC   C5A 8541   7.187  35.999   5.067
  706PAPC   C1B 8542   6.630  34.678   6.404
  706PAPC   C2B 8543   6.597  34.702   5.986
  706PAPC   C3B 8544   6.780  34.998   5.666
  706PAPC   C4B 8545   6.879  35.162   5.189
  707PAPC   NC3 8546   5.076   7.323   7.069
  707PAPC   PO4 8547   5.414   7.550   7.061
  707PAPC   GL1 8548   5.812   7.363   6.713
  707PAPC   GL2 8549   5.556   7.537   6.602
  707PAPC   C1A 8550   6.121   7.506   6.652
  707PAPC   D2A 8551   6.353   7.847   6.744
  707PAPC   D3A 8552   6.802   7.716   6.767
  707PAPC   D4A 8553   7.089   7.862   6.455
  707PAPC   C5A 8554   7.025   7.423   6.383
  707PAPC   C1B 8555   5.586   7.910   6.533
  707PAPC   C2B 8556   5.763   8.322   6.473
  707PAPC   C3B 8557   5.855   8.717   6.149
  707PAPC   C4B 8558   5.915   9.146   5.968
  708PAPC   NC3 8559  29.120   3.244   7.695
  708PAPC   PO4 8560  29.427   3.462   7.531
  708PAPC   GL1 8561  29.687   3.247   7.183
  708PAPC   GL2 8562  29.407   3.115   7.267
  708PAPC   C1A 8563  29.674   3.535   6.964
  708PAPC   D2A 8564  30.024   3.775   6.932
  708PAPC   D3A 8565  30.170   4.212   6.921
  708PAPC   D4A 8566  30.271   4.553   6.658
  708PAPC   C5A 8567  30.042   4.975   6.627
  708PAPC   C1B 8568  29.088   3.288   7.128
  708PAPC   C2B 8569  28.797   3.417   6.872
  708PAPC   C3B 8570  28.632   3.280   6.511
  708PAPC   C4B 8571  28.652   3.267   6.066
  709PAPC   NC3 8572  23.397  20.725   7.694
  709PAPC   PO4 8573  23.343  20.367   7.580
  709PAPC   GL1 8574  23.370  20.141   7.365
  709PAPC   GL2 8575  23.354  19.882   7.400
  709PAPC   C1A 8576  23.203  20.147   7.040
  709PAPC   D2A 8577  23.056  20.241   6.694
  709PAPC   D3A 8578  22.859  20.089   6.379
  709PAPC   D4A 8579  22.904  19.951   5.944
  709PAPC   C5A 8580  23.224  19.774   5.680
  709PAPC   C1B 8581  23.149  19.734   7.105
  709PAPC   C2B 8582  23.093  19.687   6.667
  709PAPC   C3B 8583  23.129  19.445   6.264
  709PAPC   C4B 8584  23.552  19.472   5.942
  710PAPC   NC3 8585   9.036  33.238   7.424
  710PAPC   PO4 8586   8.914  33.592   7.457
  710PAPC   GL1 8587   8.784  33.844   7.082
  710PAPC   GL2 8588   9.021  33.772   7.016
  710PAPC   C1A 8589   8.490  33.890   6.846
  710PAPC   D2A 8590   8.287  33.913   6.473
  710PAPC   D3A 8591   8.139  33.800   6.105
  710PAPC   D4A 8592   8.084  33.830   5.724
  710PAPC   C5A 8593   8.369  33.696   5.365
  710PAPC   C1B 8594   9.003  33.543   6.691
  710PAPC   C2B 8595   8.970  33.238   6.462
  710PAPC   C3B 8596   8.780  33.086   6.018
  710PAPC   C4B 8597   8.643  32.818   5.629
  711PAPC   NC3 8598  30.775  14.001   7.576
  711PAPC   PO4 8599  30.849  13.620   7.571
  711PAPC   GL1 8600  30.742  13.451   7.249
  711PAPC   GL2 8601  30.850  13.607   7.025
  711PAPC   C1A 8602  30.739  13.104   7.085
  711PAPC   D2A 8603  30.372  12.944   7.095
  711PAPC   D3A 8604  30.461  12.885   6.711
  711PAPC   D4A 8605  30.876  12.949   6.555
  711PAPC   C5A 8606  31.312  13.050   6.726
  711PAPC   C1B 8607  31.028  13.396   6.799
  711PAPC   C2B 8608  31.212  13.433   6.414
  711PAPC   C3B 8609  31.332  13.541   5.931
  711PAPC   C4B 8610  31.401  13.581   5.438
  712PAPC   NC3 8611  30.578  31.879   7.936
  712PAPC   PO4 8612  30.734  31.780   7.593
  712PAPC   GL1 8613  30.575  31.921   7.166
  712PAPC   GL2 8614  30.689  31.698   7.169
  712PAPC   C1A 8615  30.769  31.948   6.814
  712PAPC   D2A 8616  31.109  31.840   6.638
  712PAPC   D3A 8617  31.163  31.759   6.190
  712PAPC   D4A 8618  31.356  31.716   5.832
  712PAPC   C5A 8619  31.656  31.496   5.544
  712PAPC   C1B 8620  30.823  31.500   6.905
  712PAPC   C2B 8621  30.881  31.410   6.485
  712PAPC   C3B 8622  30.881  31.370   6.009
  712PAPC   C4B 8623  31.164  31.290   5.596
  713PAPC   NC3 8624  19.758   4.847   7.182
  713PAPC   PO4 8625  19.836   5.221   7.074
  713PAPC   GL1 8626  20.104   5.370   6.772
  713PAPC   GL2 8627  20.378   5.287   6.820
  713PAPC   C1A 8628  19.975   5.422   6.352
  713PAPC   D2A 8629  20.057   5.521   5.934
  713PAPC   D3A 8630  19.908   5.875   5.674
  713PAPC   D4A 8631  19.484   5.903   5.554
  713PAPC   C5A 8632  19.090   5.625   5.567
  713PAPC   C1B 8633  20.555   5.418   6.511
  713PAPC   C2B 8634  20.686   5.523   6.137
  713PAPC   C3B 8635  20.602   5.451   5.742
  713PAPC   C4B 8636  20.443   5.851   5.437
  714PAPC   NC3 8637   0.014  19.432   7.056
  714PAPC   PO4 8638  -0.031  19.455   7.472
  714PAPC   GL1 8639   0.409  19.493   7.511
  714PAPC   GL2 8640   0.395  19.239   7.474
  714PAPC   C1A 8641   0.635  19.540   7.165
  714PAPC   D2A 8642   0.738  19.615   6.807
  714PAPC   D3A 8643   0.925  19.880   6.421
  714PAPC   D4A 8644   1.158  20.140   6.166
  714PAPC   C5A 8645   1.360  20.069   5.719
  714PAPC   C1B 8646   0.391  19.083   7.110
  714PAPC   C2B 8647   0.342  19.241   6.695
  714PAPC   C3B 8648   0.268  19.618   6.586
  714PAPC   C4B 8649   0.401  19.924   6.280
  715PAPC   NC3 8650   5.689  26.461   7.045
  715PAPC   PO4 8651   6.078  26.418   7.019
  715PAPC   GL1 8652   6.074  26.394   6.595
  715PAPC   GL2 8653   5.830  26.583   6.582
  715PAPC   C1A 8654   6.311  26.473   6.315
  715PAPC   D2A 8655   6.386  26.474   5.896
  715PAPC   D3A 8656   6.256  26.337   5.525
  715PAPC   D4A 8657   6.389  26.254   5.104
  715PAPC   C5A 8658   6.540  26.581   4.715
  715PAPC   C1B 8659   5.910  26.615   6.240
  715PAPC   C2B 8660   5.871  26.586   5.832
  715PAPC   C3B 8661   5.594  26.268   5.660
  715PAPC   C4B 8662   5.325  25.890   5.680
  716PAPC   NC3 8663  30.010  34.444   7.581
  716PAPC   PO4 8664  29.724  34.511   7.334
  716PAPC   GL1 8665  29.724  34.725   6.936
  716PAPC   GL2 8666  29.620  35.022   7.100
  716PAPC   C1A 8667  29.720  34.638   6.566
  716PAPC   D2A 8668  29.660  34.555   6.177
  716PAPC   D3A 8669  29.724  34.620   5.749
  716PAPC   D4A 8670  30.099  34.717   5.498
  716PAPC   C5A 8671  30.003  34.261   5.509
  716PAPC   C1B 8672  29.519  35.084   6.803
  716PAPC   C2B 8673  29.208  35.120   6.523
  716PAPC   C3B 8674  29.205  35.512   6.220
  716PAPC   C4B 8675  29.287  35.700   5.793
  717PAPC   NC3 8676  20.591  27.625   7.902
  717PAPC   PO4 8677  20.619  27.924   7.639
  717PAPC   GL1 8678  20.532  27.761   7.199
  717PAPC   GL2 8679  20.703  27.999   7.180
  717PAPC   C1A 8680  20.331  27.698   6.859
  717PAPC   D2A 8681  20.341  27.407   6.594
  717PAPC   D3A 8682  19.971  27.384   6.299
  717PAPC   D4A 8683  19.692  27.062   6.507
  717PAPC   C5A 8684  19.752  26.868   6.881
  717PAPC   C1B 8685  20.660  28.026   6.806
  717PAPC   C2B 8686  20.523  27.824   6.446
  717PAPC   C3B 8687  20.374  27.778   5.978
  717PAPC   C4B 8688  20.516  27.841   5.551
  718PAPC   NC3 8689   1.202  18.020   8.059
  718PAPC   PO4 8690   1.051  18.087   7.738
  718PAPC   GL1 8691   1.083  18.069   7.368
  718PAPC   GL2 8692   1.187  17.785   7.383
  718PAPC   C1A 8693   1.210  18.156   7.013
  718PAPC   D2A 8694   1.239  18.226   6.618
  718PAPC   D3A 8695   1.079  18.102   6.208
  718PAPC   D4A 8696   0.818  18.226   5.906
  718PAPC   C5A 8697   1.166  18.299   5.630
  718PAPC   C1B 8698   1.418  17.756   7.115
  718PAPC   C2B 8699   1.527  17.818   6.750
  718PAPC   C3B 8700   1.541  17.868   6.250
  718PAPC   C4B 8701   1.412  17.862   5.833
  719PAPC   NC3 8702   5.547   6.824   7.672
  719PAPC   PO4 8703   5.336   7.045   7.394
  719PAPC   GL1 8704   5.462   6.910   7.056
  719PAPC   GL2 8705   5.434   7.114   6.849
  719PAPC   C1A 8706   5.649   6.703   6.824
  719PAPC   D2A 8707   5.893   6.541   6.532
  719PAPC   D3A 8708   6.055   6.556   6.153
  719PAPC   D4A 8709   6.208   6.496   5.832
  719PAPC   C5A 8710   6.508   6.103   5.758
  719PAPC   C1B 8711   5.535   7.006   6.570
  719PAPC   C2B 8712   5.734   6.968   6.243
  719PAPC   C3B 8713   5.875   7.180   5.880
  719PAPC   C4B 8714   5.961   7.218   5.401
  720PAPC   NC3 8715  14.687   0.006   7.428
  720PAPC   PO4 8716  15.064   0.117   7.465
  720PAPC   GL1 8717  15.234   0.247   7.138
  720PAPC   GL2 8718  15.520   0.244   7.218
  720PAPC   C1A 8719  15.034   0.476   6.953
  720PAPC   D2A 8720  15.206   0.603   6.600
  720PAPC   D3A 8721  15.184   0.588   6.161
  720PAPC   D4A 8722  15.099   0.778   5.822
  720PAPC   C5A 8723  15.374   0.899   5.507
  720PAPC   C1B 8724  15.752   0.303   6.940
  720PAPC   C2B 8725  16.021   0.235   6.632
  720PAPC   C3B 8726  16.084   0.250   6.043
  720PAPC   C4B 8727  16.254   0.162   5.567
  721PAPC   NC3 8728  12.669   3.976   7.759
  721PAPC   PO4 8729  12.882   3.664   7.773
  721PAPC   GL1 8730  13.171   3.523   7.456
  721PAPC   GL2 8731  12.956   3.555   7.219
  721PAPC   C1A 8732  13.532   3.623   7.406
  721PAPC   D2A 8733  13.808   3.891   7.313
  721PAPC   D3A 8734  14.060   4.150   7.591
  721PAPC   D4A 8735  14.180   4.241   7.162
  721PAPC   C5A 8736  14.153   4.195   6.767
  721PAPC   C1B 8737  13.086   3.404   6.878
  721PAPC   C2B 8738  13.092   3.333   6.498
  721PAPC   C3B 8739  13.133   3.217   6.051
  721PAPC   C4B 8740  13.117   3.052   5.582
  722PAPC   NC3 8741   7.991  16.097   7.604
  722PAPC   PO4 8742   7.981  16.412   7.419
  722PAPC   GL1 8743   8.202  16.525   7.128
  722PAPC   GL2 8744   8.457  16.319   7.165
  722PAPC   C1A 8745   8.269  16.649   6.773
  722PAPC   D2A 8746   8.216  16.955   6.613
  722PAPC   D3A 8747   8.447  16.630   6.327
  722PAPC   D4A 8748   8.472  16.389   5.952
  722PAPC   C5A 8749   8.651  16.380   5.502
  722PAPC   C1B 8750   8.625  16.274   6.825
  722PAPC   C2B 8751   8.596  16.161   6.415
  722PAPC   C3B 8752   8.862  16.044   5.998
  722PAPC   C4B 8753   9.104  16.105   5.638
  723PAPC   NC3 8754  11.868  22.838   6.880
  723PAPC   PO4 8755  11.507  22.717   6.963
  723PAPC   GL1 8756  11.459  22.425   6.738
  723PAPC   GL2 8757  11.716  22.341   6.683
  723PAPC   C1A 8758  11.255  22.222   6.492
  723PAPC   D2A 8759  10.960  21.924   6.301
  723PAPC   D3A 8760  10.617  21.994   6.027
  723PAPC   D4A 8761  10.548  22.168   5.649
  723PAPC   C5A 8762  10.829  22.065   5.296
  723PAPC   C1B 8763  11.976  22.401   6.358
  723PAPC   C2B 8764  12.255  22.164   6.137
  723PAPC   C3B 8765  12.216  21.893   5.696
  723PAPC   C4B 8766  12.336  21.790   5.208
  724PAPC   NC3 8767  34.183  30.832   7.674
  724PAPC   PO4 8768  34.298  31.187   7.871
  724PAPC   GL1 8769  34.351  31.395   7.543
  724PAPC   GL2 8770  34.163  31.651   7.625
  724PAPC   C1A 8771  34.252  31.181   7.285
  724PAPC   D2A 8772  34.347  30.960   6.997
  724PAPC   D3A 8773  34.641  30.581   6.860
  724PAPC   D4A 8774  34.735  30.466   6.422
  724PAPC   C5A 8775  35.015  30.213   6.201
  724PAPC   C1B 8776  33.986  31.614   7.308
  724PAPC   C2B 8777  33.957  31.424   6.972
  724PAPC   C3B 8778  33.967  31.357   6.536
  724PAPC   C4B 8779  34.054  31.144   6.089
  725PAPC   NC3 8780   0.818  15.555   8.268
  725PAPC   PO4 8781   1.002  15.219   8.067
  725PAPC   GL1 8782   1.070  15.256   7.696
  725PAPC   GL2 8783   0.830  15.123   7.534
  725PAPC   C1A 8784   1.284  15.482   7.473
  725PAPC   D2A 8785   1.586  15.820   7.490
  725PAPC   D3A 8786   1.934  15.474   7.480
  725PAPC   D4A 8787   2.213  15.360   7.097
  725PAPC   C5A 8788   2.174  15.181   6.671
  725PAPC   C1B 8789   0.914  14.970   7.190
  725PAPC   C2B 8790   0.886  15.178   6.839
  725PAPC   C3B 8791   0.998  15.452   6.448
  725PAPC   C4B 8792   1.301  15.595   6.105
  726PAPC   NC3 8793  13.876  31.467   7.963
  726PAPC   PO4 8794  13.582  31.622   7.713
  726PAPC   GL1 8795  13.794  31.870   7.472
  726PAPC   GL2 8796  13.461  31.819   7.266
  726PAPC   C1A 8797  13.997  31.966   7.200
  726PAPC   D2A 8798  14.317  32.012   6.927
  726PAPC   D3A 8799  14.116  32.182   6.606
  726PAPC   D4A 8800  13.922  32.061   6.139
  726PAPC   C5A 8801  13.870  32.346   5.708
  726PAPC   C1B 8802  13.432  31.668   6.934
  726PAPC   C2B 8803  13.458  31.410   6.644
  726PAPC   C3B 8804  13.659  31.068   6.308
  726PAPC   C4B 8805  13.902  30.828   5.915
  727PAPC   NC3 8806  11.057  23.032   7.094
  727PAPC   PO4 8807  10.668  23.064   6.921
  727PAPC   GL1 8808  10.725  23.053   6.447
  727PAPC   GL2 8809  10.608  23.303   6.473
  727PAPC   C1A 8810  10.874  22.790   6.245
  727PAPC   D2A 8811  10.913  22.435   6.186
  727PAPC   D3A 8812  11.052  22.247   5.765
  727PAPC   D4A 8813  11.306  22.233   5.355
  727PAPC   C5A 8814  11.297  22.020   4.954
  727PAPC   C1B 8815  10.596  23.512   6.156
  727PAPC   C2B 8816  10.501  23.441   5.785
  727PAPC   C3B 8817  10.481  23.443   5.343
  727PAPC   C4B 8818  10.581  23.282   4.861
  728PAPC   NC3 8819  35.486  30.360   7.892
  728PAPC   PO4 8820  35.533  30.708   7.675
  728PAPC   GL1 8821  35.758  30.657   7.340
  728PAPC   GL2 8822  35.937  30.794   7.257
  728PAPC   C1A 8823  35.548  30.496   7.091
  728PAPC   D2A 8824  35.558  30.160   6.842
  728PAPC   D3A 8825  35.847  30.062   6.614
  728PAPC   D4A 8826  36.101  29.963   6.280
  728PAPC   C5A 8827  36.510  30.163   6.189
  728PAPC   C1B 8828  35.940  30.947   6.903
  728PAPC   C2B 8829  36.073  30.881   6.498
  728PAPC   C3B 8830  35.981  30.923   6.087
  728PAPC   C4B 8831  36.081  30.866   5.652
  729PAPC   NC3 8832  14.954  16.138   7.282
  729PAPC   PO4 8833  14.827  15.787   7.386
  729PAPC   GL1 8834  14.895  15.555   6.975
  729PAPC   GL2 8835  15.117  15.795   6.984
  729PAPC   C1A 8836  14.683  15.717   6.678
  729PAPC   D2A 8837  14.616  15.672   6.292
  729PAPC   D3A 8838  14.489  15.875   5.889
  729PAPC   D4A 8839  14.269  15.685   5.530
  729PAPC   C5A 8840  13.841  15.912   5.515
  729PAPC   C1B 8841  15.118  15.985   6.682
  729PAPC   C2B 8842  15.093  15.990   6.270
  729PAPC   C3B 8843  15.059  15.868   5.817
  729PAPC   C4B 8844  15.278  15.851   5.396
  730PAPC   NC3 8845   1.585  13.837   8.642
  730PAPC   PO4 8846   1.408  13.963   8.299
  730PAPC   GL1 8847   1.404  13.841   7.922
  730PAPC   GL2 8848   1.159  13.674   7.799
  730PAPC   C1A 8849   1.664  13.786   7.749
  730PAPC   D2A 8850   1.787  13.655   7.414
  730PAPC   D3A 8851   1.777  14.073   7.311
  730PAPC   D4A 8852   1.879  13.980   6.917
  730PAPC   C5A 8853   1.613  13.652   6.801
  730PAPC   C1B 8854   1.331  13.637   7.483
  730PAPC   C2B 8855   1.455  13.397   7.174
  730PAPC   C3B 8856   1.556  13.161   6.726
  730PAPC   C4B 8857   1.742  13.060   6.288
  731PAPC   NC3 8858   3.832  22.648   7.906
  731PAPC   PO4 8859   3.741  22.789   7.552
  731PAPC   GL1 8860   3.904  22.612   7.221
  731PAPC   GL2 8861   3.784  22.387   7.220
  731PAPC   C1A 8862   4.046  22.700   6.892
  731PAPC   D2A 8863   3.965  22.700   6.492
  731PAPC   D3A 8864   3.796  22.776   6.095
  731PAPC   D4A 8865   3.775  22.925   5.670
  731PAPC   C5A 8866   4.040  23.251   5.497
  731PAPC   C1B 8867   3.767  22.367   6.835
  731PAPC   C2B 8868   3.691  22.248   6.436
  731PAPC   C3B 8869   3.727  22.256   5.944
  731PAPC   C4B 8870   3.583  21.974   5.533
  732PAPC   NC3 8871  15.092   2.533   7.583
  732PAPC   PO4 8872  15.185   2.825   7.359
  732PAPC   GL1 8873  15.545   2.941   7.160
  732PAPC   GL2 8874  15.807   2.989   7.208
  732PAPC   C1A 8875  15.608   3.226   6.865
  732PAPC   D2A 8876  15.857   3.546   6.749
  732PAPC   D3A 8877  15.772   4.035   6.623
  732PAPC   D4A 8878  15.931   4.461   6.528
  732PAPC   C5A 8879  16.337   4.496   6.253
  732PAPC   C1B 8880  16.032   3.038   6.873
  732PAPC   C2B 8881  16.105   3.034   6.519
  732PAPC   C3B 8882  16.074   2.976   6.024
  732PAPC   C4B 8883  16.190   3.039   5.567
  733PAPC   NC3 8884  22.898   9.926   7.394
  733PAPC   PO4 8885  22.843  10.318   7.503
  733PAPC   GL1 8886  22.516  10.632   7.176
  733PAPC   GL2 8887  22.388  10.359   7.183
  733PAPC   C1A 8888  22.655  10.616   6.809
  733PAPC   D2A 8889  22.759  10.372   6.512
  733PAPC   D3A 8890  23.022  10.524   6.221
  733PAPC   D4A 8891  23.264  10.797   5.955
  733PAPC   C5A 8892  23.668  10.732   6.216
  733PAPC   C1B 8893  22.348  10.315   6.856
  733PAPC   C2B 8894  22.283  10.163   6.489
  733PAPC   C3B 8895  22.243   9.971   6.020
  733PAPC   C4B 8896  22.480   9.983   5.593
  734PAPC   NC3 8897  18.931   6.677   7.632
  734PAPC   PO4 8898  19.017   7.069   7.531
  734PAPC   GL1 8899  18.792   7.116   7.110
  734PAPC   GL2 8900  18.821   7.378   7.119
  734PAPC   C1A 8901  18.934   6.980   6.759
  734PAPC   D2A 8902  19.114   6.883   6.458
  734PAPC   D3A 8903  19.059   6.788   6.045
  734PAPC   D4A 8904  19.205   6.570   5.625
  734PAPC   C5A 8905  19.018   6.526   5.236
  734PAPC   C1B 8906  18.921   7.469   6.784
  734PAPC   C2B 8907  18.971   7.623   6.358
  734PAPC   C3B 8908  18.985   7.745   5.870
  734PAPC   C4B 8909  19.426   7.855   5.648
  735PAPC   NC3 8910  24.923  32.742   7.320
  735PAPC   PO4 8911  25.085  33.025   7.553
  735PAPC   GL1 8912  24.980  33.410   7.399
  735PAPC   GL2 8913  25.154  33.573   7.290
  735PAPC   C1A 8914  24.751  33.273   7.144
  735PAPC   D2A 8915  24.672  33.017   6.869
  735PAPC   D3A 8916  24.300  33.273   6.951
  735PAPC   D4A 8917  24.009  33.648   6.781
  735PAPC   C5A 8918  24.216  34.051   6.595
  735PAPC   C1B 8919  25.045  33.714   6.947
  735PAPC   C2B 8920  25.039  33.782   6.526
  735PAPC   C3B 8921  24.921  33.802   6.069
  735PAPC   C4B 8922  24.690  33.813   5.645
  736PAPC   NC3 8923  21.804  28.851   6.916
  736PAPC   PO4 8924  21.669  28.478   6.887
  736PAPC   GL1 8925  21.638  28.204   6.615
  736PAPC   GL2 8926  21.877  28.266   6.445
  736PAPC   C1A 8927  21.414  28.116   6.259
  736PAPC   D2A 8928  21.381  28.121   5.845
  736PAPC   D3A 8929  21.541  27.938   5.469
  736PAPC   D4A 8930  21.785  27.642   5.752
  736PAPC   C5A 8931  22.194  27.473   6.006
  736PAPC   C1B 8932  21.790  28.255   6.047
  736PAPC   C2B 8933  21.922  28.136   5.700
  736PAPC   C3B 8934  22.239  27.753   5.622
  736PAPC   C4B 8935  22.516  27.353   5.627
  737PAPC   NC3 8936  30.497   3.761   7.653
  737PAPC   PO4 8937  30.298   3.608   7.913
  737PAPC   GL1 8938  29.993   3.698   7.555
  737PAPC   GL2 8939  30.221   3.585   7.344
  737PAPC   C1A 8940  29.797   3.937   7.283
  737PAPC   D2A 8941  29.603   4.064   6.981
  737PAPC   D3A 8942  29.676   3.805   6.627
  737PAPC   D4A 8943  30.043   3.992   6.456
  737PAPC   C5A 8944  30.120   4.231   6.027
  737PAPC   C1B 8945  30.157   3.337   7.068
  737PAPC   C2B 8946  29.959   3.339   6.709
  737PAPC   C3B 8947  29.859   3.444   6.305
  737PAPC   C4B 8948  29.600   3.492   5.832
  738PAPC   NC3 8949   0.680  16.479   7.999
  738PAPC   PO4 8950   0.482  16.148   7.855
  738PAPC   GL1 8951   0.544  16.106   7.440
  738PAPC   GL2 8952   0.474  15.827   7.449
  738PAPC   C1A 8953   0.592  16.186   7.134
  738PAPC   D2A 8954   0.585  16.250   6.760
  738PAPC   D3A 8955   0.475  16.066   6.390
  738PAPC   D4A 8956   0.201  15.978   6.087
  738PAPC   C5A 8957   0.209  16.163   5.663
  738PAPC   C1B 8958   0.356  15.678   7.103
  738PAPC   C2B 8959   0.469  15.696   6.704
  738PAPC   C3B 8960   0.472  15.565   6.218
  738PAPC   C4B 8961   0.478  15.279   5.807
  739PAPC   NC3 8962   6.542  35.603   7.094
  739PAPC   PO4 8963   6.288  35.542   7.423
  739PAPC   GL1 8964   6.043  35.601   7.014
  739PAPC   GL2 8965   5.933  35.367   7.077
  739PAPC   C1A 8966   6.266  35.620   6.668
  739PAPC   D2A 8967   6.493  35.443   6.424
  739PAPC   D3A 8968   6.364  35.195   6.062
  739PAPC   D4A 8969   5.970  35.260   5.810
  739PAPC   C5A 8970   5.629  35.074   5.531
  739PAPC   C1B 8971   5.657  35.268   6.887
  739PAPC   C2B 8972   5.367  35.044   6.699
  739PAPC   C3B 8973   5.175  34.893   6.330
  739PAPC   C4B 8974   4.897  34.806   5.956
  740PAPC   NC3 8975  35.432   1.857   7.804
  740PAPC   PO4 8976  35.748   1.945   7.567
  740PAPC   GL1 8977  35.608   1.959   7.209
  740PAPC   GL2 8978  35.890   2.051   7.092
  740PAPC   C1A 8979  35.378   1.826   6.984
  740PAPC   D2A 8980  35.251   1.759   6.602
  740PAPC   D3A 8981  35.144   1.630   6.134
  740PAPC   D4A 8982  34.683   1.735   6.140
  740PAPC   C5A 8983  34.752   1.971   6.530
  740PAPC   C1B 8984  36.012   2.125   6.770
  740PAPC   C2B 8985  36.364   1.978   6.577
  740PAPC   C3B 8986  36.758   2.089   6.205
  740PAPC   C4B 8987  36.989   2.151   5.770
  741PAPC   NC3 8988  30.756  19.672   7.549
  741PAPC   PO4 8989  30.797  19.847   7.215
  741PAPC   GL1 8990  30.513  19.742   6.852
  741PAPC   GL2 8991  30.651  19.909   6.703
  741PAPC   C1A 8992  30.440  19.417   6.682
  741PAPC   D2A 8993  30.513  19.211   6.383
  741PAPC   D3A 8994  30.146  19.266   6.105
  741PAPC   D4A 8995  30.117  19.088   5.707
  741PAPC   C5A 8996  29.836  19.070   5.292
  741PAPC   C1B 8997  30.604  19.790   6.360
  741PAPC   C2B 8998  30.637  19.679   6.003
  741PAPC   C3B 8999  30.607  19.252   5.741
  741PAPC   C4B 9000  30.701  18.929   5.296
  742PAPC   NC3 9001   8.177  34.281   7.429
  742PAPC   PO4 9002   7.974  34.059   7.172
  742PAPC   GL1 9003   8.037  33.776   6.832
  742PAPC   GL2 9004   7.815  33.911   6.777
  742PAPC   C1A 9005   8.002  33.569   6.546
  742PAPC   D2A 9006   8.233  33.356   6.291
  742PAPC   D3A 9007   8.616  33.531   6.147
  742PAPC   D4A 9008   8.780  33.742   5.735
  742PAPC   C5A 9009   8.621  33.305   5.597
  742PAPC   C1B 9010   7.758  33.956   6.415
  742PAPC   C2B 9011   7.701  33.869   6.002
  742PAPC   C3B 9012   7.628  33.720   5.526
  742PAPC   C4B 9013   7.530  33.807   5.041
  743PAPC   NC3 9014  26.885  31.197   7.056
  743PAPC   PO4 9015  26.983  31.606   6.971
  743PAPC   GL1 9016  27.041  31.650   6.647
  743PAPC   GL2 9017  27.229  31.853   6.683
  743PAPC   C1A 9018  26.924  31.691   6.346
  743PAPC   D2A 9019  26.847  31.569   6.003
  743PAPC   D3A 9020  26.999  31.815   5.628
  743PAPC   D4A 9021  26.801  32.114   5.361
  743PAPC   C5A 9022  26.587  31.798   5.039
  743PAPC   C1B 9023  27.252  32.076   6.403
  743PAPC   C2B 9024  27.013  32.094   6.039
  743PAPC   C3B 9025  26.639  32.174   5.783
  743PAPC   C4B 9026  26.348  32.449   5.495
  744PAPC   NC3 9027  13.631  32.687   7.548
  744PAPC   PO4 9028  13.542  32.973   7.848
  744PAPC   GL1 9029  13.309  33.155   7.559
  744PAPC   GL2 9030  13.397  33.089   7.388
  744PAPC   C1A 9031  12.993  33.248   7.453
  744PAPC   D2A 9032  12.829  33.224   7.127
  744PAPC   D3A 9033  12.538  32.990   7.377
  744PAPC   D4A 9034  12.063  32.872   7.441
  744PAPC   C5A 9035  12.168  32.392   7.302
  744PAPC   C1B 9036  13.222  32.964   7.119
  744PAPC   C2B 9037  12.986  32.924   6.733
  744PAPC   C3B 9038  12.763  32.854   6.346
  744PAPC   C4B 9039  12.695  32.857   5.871
  745PAPC   NC3 9040  11.016  11.123   7.168
  745PAPC   PO4 9041  11.338  10.895   7.242
  745PAPC   GL1 9042  11.406  10.710   6.922
  745PAPC   GL2 9043  11.119  10.815   6.834
  745PAPC   C1A 9044  11.474  10.738   6.541
  745PAPC   D2A 9045  11.741  10.893   6.227
  745PAPC   D3A 9046  12.068  11.278   6.165
  745PAPC   D4A 9047  12.389  11.565   6.076
  745PAPC   C5A 9048  12.500  11.885   5.765
  745PAPC   C1B 9049  11.056  10.462   6.650
  745PAPC   C2B 9050  10.914  10.405   6.272
  745PAPC   C3B 9051  10.862  10.573   5.831
  745PAPC   C4B 9052  10.432  10.699   5.707
  746PAPC   NC3 9053  14.204  14.094   7.083
  746PAPC   PO4 9054  14.358  14.469   7.097
  746PAPC   GL1 9055  14.701  14.498   6.872
  746PAPC   GL2 9056  14.751  14.218   6.909
  746PAPC   C1A 9057  14.757  14.823   6.686
  746PAPC   D2A 9058  14.690  15.204   6.751
  746PAPC   D3A 9059  14.332  15.301   6.660
  746PAPC   D4A 9060  14.176  15.448   6.252
  746PAPC   C5A 9061  13.828  15.587   6.505
  746PAPC   C1B 9062  14.655  14.078   6.548
  746PAPC   C2B 9063  14.697  13.978   6.164
  746PAPC   C3B 9064  14.697  13.865   5.766
  746PAPC   C4B 9065  14.685  13.725   5.279
  747PAPC   NC3 9066   9.384  30.327   7.368
  747PAPC   PO4 9067   9.784  30.273   7.346
  747PAPC   GL1 9068   9.830  30.127   7.010
  747PAPC   GL2 9069  10.053  30.280   6.882
  747PAPC   C1A 9070   9.761  29.796   6.883
  747PAPC   D2A 9071   9.437  29.607   6.656
  747PAPC   D3A 9072   9.405  29.887   6.350
  747PAPC   D4A 9073   9.482  29.665   5.939
  747PAPC   C5A 9074   9.795  29.252   5.902
  747PAPC   C1B 9075  10.062  30.165   6.546
  747PAPC   C2B 9076  10.085  29.945   6.163
  747PAPC   C3B 9077  10.212  29.750   5.731
  747PAPC   C4B 9078  10.195  29.532   5.293
  748PAPC   NC3 9079  12.080  16.859   7.621
  748PAPC   PO4 9080  11.745  17.059   7.614
  748PAPC   GL1 9081  11.667  17.294   7.217
  748PAPC   GL2 9082  11.772  17.030   7.098
  748PAPC   C1A 9083  11.909  17.382   6.923
  748PAPC   D2A 9084  11.952  17.319   6.524
  748PAPC   D3A 9085  11.805  17.338   6.081
  748PAPC   D4A 9086  11.365  17.302   5.976
  748PAPC   C5A 9087  11.120  16.907   6.029
  748PAPC   C1B 9088  11.611  16.997   6.792
  748PAPC   C2B 9089  11.534  16.942   6.350
  748PAPC   C3B 9090  11.579  16.885   5.889
  748PAPC   C4B 9091  11.580  16.750   5.459
  749PAPC   NC3 9092  10.591  15.475   7.610
  749PAPC   PO4 9093  10.460  15.108   7.510
  749PAPC   GL1 9094  10.569  14.995   7.031
  749PAPC   GL2 9095  10.475  15.251   6.965
  749PAPC   C1A 9096  10.662  14.915   6.705
  749PAPC   D2A 9097  10.901  14.757   6.400
  749PAPC   D3A 9098  10.790  15.147   6.282
  749PAPC   D4A 9099  10.689  15.243   5.860
  749PAPC   C5A 9100  10.284  15.099   5.713
  749PAPC   C1B 9101  10.383  15.266   6.565
  749PAPC   C2B 9102  10.235  15.265   6.191
  749PAPC   C3B 9103  10.111  15.650   5.899
  749PAPC   C4B 9104  10.091  15.960   5.553
  750PAPC   NC3 9105  19.794  11.559   7.293
  750PAPC   PO4 9106  19.761  11.933   7.471
  750PAPC   GL1 9107  19.707  12.064   7.105
  750PAPC   GL2 9108  19.356  12.142   7.156
  750PAPC   C1A 9109  19.743  12.106   6.681
  750PAPC   D2A 9110  19.695  12.135   6.278
  750PAPC   D3A 9111  19.320  12.257   6.031
  750PAPC   D4A 9112  19.014  12.042   6.085
  750PAPC   C5A 9113  18.711  11.732   5.977
  750PAPC   C1B 9114  19.187  12.117   6.828
  750PAPC   C2B 9115  18.867  12.029   6.593
  750PAPC   C3B 9116  18.469  12.007   6.389
  750PAPC   C4B 9117  18.005  11.982   6.163
  751PAPC   NC3 9118   8.999  29.593   7.048
  751PAPC   PO4 9119   9.319  29.803   7.125
  751PAPC   GL1 9120   9.421  30.089   6.941
  751PAPC   GL2 9121   9.146  30.221   6.948
  751PAPC   C1A 9122   9.622  30.177   6.626
  751PAPC   D2A 9123   9.706  30.250   6.268
  751PAPC   D3A 9124   9.728  30.109   5.781
  751PAPC   D4A 9125   9.608  29.818   5.495
  751PAPC   C5A 9126   9.399  29.471   5.521
  751PAPC   C1B 9127   9.115  30.150   6.631
  751PAPC   C2B 9128   8.908  30.125   6.307
  751PAPC   C3B 9129   8.758  30.263   5.825
  751PAPC   C4B 9130   8.567  30.198   5.362
  752PAPC   NC3 9131  15.606  25.358   7.644
  752PAPC   PO4 9132  15.614  24.967   7.602
  752PAPC   GL1 9133  15.711  24.711   7.374
  752PAPC   GL2 9134  15.729  24.416   7.479
  752PAPC   C1A 9135  15.548  24.710   7.063
  752PAPC   D2A 9136  15.385  24.594   6.722
  752PAPC   D3A 9137  15.257  24.592   6.330
  752PAPC   D4A 9138  15.340  24.506   5.908
  752PAPC   C5A 9139  15.470  24.310   5.464
  752PAPC   C1B 9140  15.532  24.156   7.236
  752PAPC   C2B 9141  15.505  23.931   6.885
  752PAPC   C3B 9142  15.707  23.716   6.457
  752PAPC   C4B 9143  15.713  23.463   6.052
  753PAPC   NC3 9144   1.534  31.584   7.748
  753PAPC   PO4 9145   1.192  31.328   7.806
  753PAPC   GL1 9146   1.038  31.488   7.429
  753PAPC   GL2 9147   1.221  31.823   7.478
  753PAPC   C1A 9148   0.902  31.440   7.098
  753PAPC   D2A 9149   0.770  31.528   6.759
  753PAPC   D3A 9150   0.844  31.501   6.347
  753PAPC   D4A 9151   0.792  31.415   5.921
  753PAPC   C5A 9152   1.091  31.751   5.748
  753PAPC   C1B 9153   1.163  31.862   7.096
  753PAPC   C2B 9154   1.264  31.704   6.691
  753PAPC   C3B 9155   1.264  31.737   6.205
  753PAPC   C4B 9156   1.625  31.820   5.845
  754PAPC   NC3 9157  13.666  27.460   7.129
  754PAPC   PO4 9158  14.074  27.515   7.157
  754PAPC   GL1 9159  14.210  27.700   6.875
  754PAPC   GL2 9160  14.466  27.704   6.799
  754PAPC   C1A 9161  14.031  27.600   6.533
  754PAPC   D2A 9162  14.091  27.429   6.183
  754PAPC   D3A 9163  14.208  27.560   5.760
  754PAPC   D4A 9164  14.328  27.241   5.526
  754PAPC   C5A 9165  14.498  27.234   5.110
  754PAPC   C1B 9166  14.620  27.666   6.463
  754PAPC   C2B 9167  14.695  27.558   6.086
  754PAPC   C3B 9168  14.848  27.462   5.615
  754PAPC   C4B 9169  14.986  27.353   5.115
  755PAPC   NC3 9170  13.962   1.123   7.044
  755PAPC   PO4 9171  13.696   1.368   7.149
  755PAPC   GL1 9172  13.712   1.254   6.634
  755PAPC   GL2 9173  13.498   1.412   6.644
  755PAPC   C1A 9174  14.049   1.346   6.635
  755PAPC   D2A 9175  14.331   1.377   6.362
  755PAPC   D3A 9176  14.120   1.217   5.989
  755PAPC   D4A 9177  14.083   1.018   5.499
  755PAPC   C5A 9178  14.407   0.851   5.244
  755PAPC   C1B 9179  13.458   1.713   6.433
  755PAPC   C2B 9180  13.482   1.935   6.047
  755PAPC   C3B 9181  13.567   2.216   5.701
  755PAPC   C4B 9182  13.947   2.422   5.409
  756PAPC   NC3 9183  34.474  35.178   6.961
  756PAPC   PO4 9184  34.337  35.492   6.953
  756PAPC   GL1 9185  34.372  35.504   6.522
  756PAPC   GL2 9186  34.140  35.321   6.538
  756PAPC   C1A 9187  34.451  35.799   6.283
  756PAPC   D2A 9188  34.610  35.969   5.976
  756PAPC   D3A 9189  34.599  35.785   5.647
  756PAPC   D4A 9190  34.614  35.743   5.192
  756PAPC   C5A 9191  34.465  36.041   4.890
  756PAPC   C1B 9192  34.060  35.210   6.180
  756PAPC   C2B 9193  33.878  35.079   5.792
  756PAPC   C3B 9194  33.631  34.843   5.558
  756PAPC   C4B 9195  33.245  34.643   5.408
  757PAPC   NC3 9196   3.774  20.674   7.683
  757PAPC   PO4 9197   4.081  20.824   7.506
  757PAPC   GL1 9198   4.196  20.810   7.076
  757PAPC   GL2 9199   4.347  21.075   7.158
  757PAPC   C1A 9200   4.396  20.785   6.820
  757PAPC   D2A 9201   4.689  20.584   6.715
  757PAPC   D3A 9202   4.750  20.601   6.285
  757PAPC   D4A 9203   4.662  20.605   5.879
  757PAPC   C5A 9204   4.416  20.386   5.570
  757PAPC   C1B 9205   4.293  21.205   6.832
  757PAPC   C2B 9206   4.289  21.173   6.472
  757PAPC   C3B 9207   4.385  21.033   5.944
  757PAPC   C4B 9208   4.168  20.811   5.546
  758PAPC   NC3 9209   6.673  22.857   7.815
  758PAPC   PO4 9210   6.571  23.187   7.593
  758PAPC   GL1 9211   6.896  23.177   7.242
  758PAPC   GL2 9212   6.649  23.054   7.083
  758PAPC   C1A 9213   7.034  23.359   6.968
  758PAPC   D2A 9214   7.083  23.552   6.589
  758PAPC   D3A 9215   7.055  23.578   6.126
  758PAPC   D4A 9216   7.080  24.049   5.970
  758PAPC   C5A 9217   7.391  24.280   5.676
  758PAPC   C1B 9218   6.618  23.206   6.746
  758PAPC   C2B 9219   6.430  23.405   6.443
  758PAPC   C3B 9220   6.220  23.447   6.038
  758PAPC   C4B 9221   6.056  23.198   5.677
  759PAPC   NC3 9222   2.995  12.984   7.902
  759PAPC   PO4 9223   2.943  12.622   7.735
  759PAPC   GL1 9224   3.130  12.590   7.384
  759PAPC   GL2 9225   3.402  12.530   7.502
  759PAPC   C1A 9226   2.997  12.731   7.056
  759PAPC   D2A 9227   2.873  12.929   6.712
  759PAPC   D3A 9228   2.402  12.748   6.798
  759PAPC   D4A 9229   2.209  12.331   6.815
  759PAPC   C5A 9230   1.702  12.330   6.783
  759PAPC   C1B 9231   3.613  12.685   7.219
  759PAPC   C2B 9232   3.856  12.737   6.904
  759PAPC   C3B 9233   3.952  12.579   6.487
  759PAPC   C4B 9234   3.927  12.789   5.959
  760PAPC   NC3 9235  15.037  22.624   7.757
  760PAPC   PO4 9236  15.176  22.617   8.121
  760PAPC   GL1 9237  15.500  22.793   7.935
  760PAPC   GL2 9238  15.505  22.498   7.782
  760PAPC   C1A 9239  15.588  23.142   7.825
  760PAPC   D2A 9240  15.593  23.528   7.904
  760PAPC   D3A 9241  15.435  23.895   7.682
  760PAPC   D4A 9242  15.702  23.719   7.400
  760PAPC   C5A 9243  15.731  23.533   6.953
  760PAPC   C1B 9244  15.326  22.551   7.439
  760PAPC   C2B 9245  15.316  22.501   7.057
  760PAPC   C3B 9246  15.448  22.623   6.644
  760PAPC   C4B 9247  15.450  22.942   6.253
  761PAPC   NC3 9248  18.394  22.558   7.840
  761PAPC   PO4 9249  18.656  22.266   7.882
  761PAPC   GL1 9250  18.765  22.092   7.598
  761PAPC   GL2 9251  18.965  22.165   7.353
  761PAPC   C1A 9252  18.593  21.833   7.388
  761PAPC   D2A 9253  18.369  21.714   7.136
  761PAPC   D3A 9254  18.014  21.489   7.265
  761PAPC   D4A 9255  17.997  21.282   6.810
  761PAPC   C5A 9256  18.332  21.395   6.554
  761PAPC   C1B 9257  18.814  22.071   7.019
  761PAPC   C2B 9258  18.731  22.117   6.599
  761PAPC   C3B 9259  18.681  22.098   6.107
  761PAPC   C4B 9260  18.589  22.062   5.651
  762PAPC   NC3 9261  14.578  23.468   7.899
  762PAPC   PO4 9262  14.589  23.367   7.507
  762PAPC   GL1 9263  14.867  23.632   7.241
  762PAPC   GL2 9264  14.674  23.609   7.051
  762PAPC   C1A 9265  15.167  23.559   7.059
  762PAPC   D2A 9266  15.378  23.374   7.361
  762PAPC   D3A 9267  15.041  23.179   7.524
  762PAPC   D4A 9268  14.839  23.130   7.114
  762PAPC   C5A 9269  14.901  22.621   7.209
  762PAPC   C1B 9270  14.839  23.453   6.761
  762PAPC   C2B 9271  14.943  23.249   6.432
  762PAPC   C3B 9272  15.009  23.066   6.007
  762PAPC   C4B 9273  15.438  22.895   5.752
  763PAPC   NC3 9274   0.828  28.071   7.251
  763PAPC   PO4 9275   0.892  27.771   7.499
  763PAPC   GL1 9276   1.089  27.454   7.212
  763PAPC   GL2 9277   1.175  27.741   7.069
  763PAPC   C1A 9278   1.173  27.149   7.083
  763PAPC   D2A 9279   1.173  27.072   6.713
  763PAPC   D3A 9280   1.222  27.477   6.692
  763PAPC   D4A 9281   1.629  27.531   6.407
  763PAPC   C5A 9282   1.669  27.606   5.959
  763PAPC   C1B 9283   0.948  27.823   6.821
  763PAPC   C2B 9284   0.663  27.746   6.509
  763PAPC   C3B 9285   0.404  27.532   6.096
  763PAPC   C4B 9286   0.058  27.259   6.072
  764PAPC   NC3 9287  35.379  17.958   7.818
  764PAPC   PO4 9288  35.776  17.980   7.809
  764PAPC   GL1 9289  35.777  18.038   7.379
  764PAPC   GL2 9290  35.646  17.830   7.344
  764PAPC   C1A 9291  35.653  18.160   7.036
  764PAPC   D2A 9292  35.511  17.959   6.746
  764PAPC   D3A 9293  35.399  17.852   6.322
  764PAPC   D4A 9294  35.727  18.005   6.038
  764PAPC   C5A 9295  35.880  17.819   6.427
  764PAPC   C1B 9296  35.675  17.633   7.046
  764PAPC   C2B 9297  35.616  17.454   6.693
  764PAPC   C3B 9298  35.430  17.338   6.306
  764PAPC   C4B 9299  35.603  17.532   5.914
  765PAPC   NC3 9300  27.538  24.991   7.066
  765PAPC   PO4 9301  27.176  25.100   7.023
  765PAPC   GL1 9302  26.966  25.135   6.763
  765PAPC   GL2 9303  26.852  25.383   6.700
  765PAPC   C1A 9304  27.050  25.010   6.400
  765PAPC   D2A 9305  26.882  25.027   6.002
  765PAPC   D3A 9306  27.074  24.824   5.583
  765PAPC   D4A 9307  27.174  24.928   5.192
  765PAPC   C5A 9308  26.823  24.691   5.160
  765PAPC   C1B 9309  26.561  25.386   6.463
  765PAPC   C2B 9310  26.482  25.347   6.097
  765PAPC   C3B 9311  26.520  25.109   5.672
  765PAPC   C4B 9312  26.583  25.215   5.193
  766PAPC   NC3 9313  27.544  18.117   7.718
  766PAPC   PO4 9314  27.845  18.261   7.443
  766PAPC   GL1 9315  27.670  18.202   7.076
  766PAPC   GL2 9316  27.849  18.112   6.888
  766PAPC   C1A 9317  27.445  17.975   6.844
  766PAPC   D2A 9318  27.103  17.839   6.712
  766PAPC   D3A 9319  27.041  17.761   6.290
  766PAPC   D4A 9320  27.094  18.164   6.144
  766PAPC   C5A 9321  26.902  18.372   6.554
  766PAPC   C1B 9322  27.970  18.313   6.605
  766PAPC   C2B 9323  28.030  18.701   6.512
  766PAPC   C3B 9324  28.089  18.948   6.150
  766PAPC   C4B 9325  28.194  19.049   5.613
  767PAPC   NC3 9326  25.267  11.468   7.282
  767PAPC   PO4 9327  25.448  11.363   7.598
  767PAPC   GL1 9328  25.439  11.018   7.292
  767PAPC   GL2 9329  25.599  11.237   7.115
  767PAPC   C1A 9330  25.174  11.087   7.032
  767PAPC   D2A 9331  25.102  11.080   6.594
  767PAPC   D3A 9332  25.046  11.345   6.247
  767PAPC   D4A 9333  24.777  11.592   5.930
  767PAPC   C5A 9334  24.966  11.932   5.675
  767PAPC   C1B 9335  25.691  11.216   6.749
  767PAPC   C2B 9336  25.877  11.021   6.419
  767PAPC   C3B 9337  25.884  10.889   5.961
  767PAPC   C4B 9338  26.145  10.950   5.598
  768PAPC   NC3 9339   3.078  15.300   8.187
  768PAPC   PO4 9340   2.666  15.233   8.038
  768PAPC   GL1 9341   2.491  15.051   7.732
  768PAPC   GL2 9342   2.553  15.257   7.516
  768PAPC   C1A 9343   2.567  14.738   7.508
  768PAPC   D2A 9344   2.622  14.520   7.166
  768PAPC   D3A 9345   3.037  14.471   6.973
  768PAPC   D4A 9346   3.271  14.212   6.679
  768PAPC   C5A 9347   3.297  13.840   6.371
  768PAPC   C1B 9348   2.620  15.141   7.180
  768PAPC   C2B 9349   2.670  14.899   6.818
  768PAPC   C3B 9350   2.928  14.679   6.549
  768PAPC   C4B 9351   3.251  14.518   6.271
  769PAPC   NC3 9352  33.560  28.410   7.867
  769PAPC   PO4 9353  33.958  28.482   7.931
  769PAPC   GL1 9354  33.920  28.636   7.626
  769PAPC   GL2 9355  33.896  28.369   7.506
  769PAPC   C1A 9356  34.157  28.730   7.388
  769PAPC   D2A 9357  34.459  28.858   7.227
  769PAPC   D3A 9358  34.542  28.907   6.739
  769PAPC   D4A 9359  34.668  29.279   6.490
  769PAPC   C5A 9360  34.580  29.280   5.976
  769PAPC   C1B 9361  33.845  28.477   7.124
  769PAPC   C2B 9362  33.879  28.524   6.713
  769PAPC   C3B 9363  33.936  28.453   6.228
  769PAPC   C4B 9364  33.927  28.176   5.861
  770PAPC   NC3 9365  22.692   6.330   7.515
  770PAPC   PO4 9366  22.408   6.413   7.266
  770PAPC   GL1 9367  22.413   6.254   6.897
  770PAPC   GL2 9368  22.318   6.580   6.757
  770PAPC   C1A 9369  22.768   6.076   6.806
  770PAPC   D2A 9370  23.113   6.180   6.570
  770PAPC   D3A 9371  23.042   6.278   6.160
  770PAPC   D4A 9372  22.982   6.608   5.788
  770PAPC   C5A 9373  23.441   6.749   5.564
  770PAPC   C1B 9374  22.281   6.746   6.440
  770PAPC   C2B 9375  22.439   6.899   6.072
  770PAPC   C3B 9376  22.416   7.117   5.667
  770PAPC   C4B 9377  22.203   7.538   5.534
  771PAPC   NC3 9378   2.091  11.587   7.418
  771PAPC   PO4 9379   1.839  11.476   7.664
  771PAPC   GL1 9380   1.643  11.206   7.279
  771PAPC   GL2 9381   1.680  11.465   7.201
  771PAPC   C1A 9382   1.711  10.929   6.995
  771PAPC   D2A 9383   1.870  10.795   6.667
  771PAPC   D3A 9384   2.009  10.778   6.221
  771PAPC   D4A 9385   1.802  10.447   5.901
  771PAPC   C5A 9386   1.972  10.618   5.541
  771PAPC   C1B 9387   1.542  11.674   6.872
  771PAPC   C2B 9388   1.574  11.632   6.392
  771PAPC   C3B 9389   1.786  11.784   5.962
  771PAPC   C4B 9390   2.163  11.835   5.692
  772PAPC   NC3 9391   7.115  13.774   7.137
  772PAPC   PO4 9392   7.238  14.125   7.269
  772PAPC   GL1 9393   7.540  14.217   7.086
  772PAPC   GL2 9394   7.624  13.881   7.071
  772PAPC   C1A 9395   7.892  14.231   6.947
  772PAPC   D2A 9396   8.070  14.078   6.617
  772PAPC   D3A 9397   8.249  14.398   6.323
  772PAPC   D4A 9398   8.393  14.668   5.948
  772PAPC   C5A 9399   8.379  14.556   5.467
  772PAPC   C1B 9400   7.635  13.826   6.687
  772PAPC   C2B 9401   7.790  13.837   6.260
  772PAPC   C3B 9402   7.859  13.804   5.768
  772PAPC   C4B 9403   8.216  13.645   5.468
  773PAPC   NC3 9404  23.919  10.028   7.478
  773PAPC   PO4 9405  23.656   9.729   7.499
  773PAPC   GL1 9406  23.483   9.782   7.074
  773PAPC   GL2 9407  23.231   9.703   7.187
  773PAPC   C1A 9408  23.523   9.696   6.788
  773PAPC   D2A 9409  23.423   9.680   6.414
  773PAPC   D3A 9410  23.298  10.048   6.158
  773PAPC   D4A 9411  23.338  10.293   5.769
  773PAPC   C5A 9412  23.259  10.472   5.364
  773PAPC   C1B 9413  23.047   9.659   6.819
  773PAPC   C2B 9414  22.856   9.774   6.445
  773PAPC   C3B 9415  22.733  10.077   6.063
  773PAPC   C4B 9416  22.713  10.425   5.676
  774PAPC   NC3 9417  33.989   1.351   6.921
  774PAPC   PO4 9418  34.282   1.607   6.900
  774PAPC   GL1 9419  34.402   1.655   6.453
  774PAPC   GL2 9420  34.387   1.348   6.480
  774PAPC   C1A 9421  34.214   1.839   6.194
  774PAPC   D2A 9422  34.321   1.951   5.842
  774PAPC   D3A 9423  33.906   1.863   5.569
  774PAPC   D4A 9424  33.934   1.403   5.791
  774PAPC   C5A 9425  33.916   1.496   6.273
  774PAPC   C1B 9426  34.454   1.295   6.161
  774PAPC   C2B 9427  34.420   1.494   5.817
  774PAPC   C3B 9428  34.309   1.560   5.365
  774PAPC   C4B 9429  33.969   1.728   4.965
  775PAPC   NC3 9430  34.951   5.574   7.860
  775PAPC   PO4 9431  35.327   5.762   7.782
  775PAPC   GL1 9432  35.249   5.825   7.374
  775PAPC   GL2 9433  35.475   5.716   7.238
  775PAPC   C1A 9434  34.961   5.767   7.178
  775PAPC   D2A 9435  34.778   5.727   6.852
  775PAPC   D3A 9436  35.090   5.510   6.602
  775PAPC   D4A 9437  34.787   5.734   6.302
  775PAPC   C5A 9438  35.041   5.885   5.928
  775PAPC   C1B 9439  35.324   5.815   6.917
  775PAPC   C2B 9440  35.128   6.017   6.638
  775PAPC   C3B 9441  35.043   6.269   6.238
  775PAPC   C4B 9442  35.015   6.399   5.721
  776PAPC   NC3 9443   9.487   6.638   7.637
  776PAPC   PO4 9444   9.523   6.979   7.413
  776PAPC   GL1 9445   9.326   7.079   7.084
  776PAPC   GL2 9446   9.626   7.238   7.040
  776PAPC   C1A 9447   9.330   6.840   6.772
  776PAPC   D2A 9448   9.408   6.591   6.501
  776PAPC   D3A 9449   9.514   6.230   6.296
  776PAPC   D4A 9450   9.319   6.081   5.934
  776PAPC   C5A 9451   9.537   6.029   5.501
  776PAPC   C1B 9452   9.913   7.294   6.790
  776PAPC   C2B 9453   9.883   7.420   6.425
  776PAPC   C3B 9454   9.923   7.354   5.905
  776PAPC   C4B 9455   9.709   6.985   5.616
  777PAPC   NC3 9456  23.234  29.584   7.416
  777PAPC   PO4 9457  22.895  29.652   7.231
  777PAPC   GL1 9458  23.090  29.609   6.917
  777PAPC   GL2 9459  23.329  29.713   6.979
  777PAPC   C1A 9460  23.160  29.653   6.563
  777PAPC   D2A 9461  23.116  29.377   6.316
  777PAPC   D3A 9462  22.719  29.457   6.047
  777PAPC   D4A 9463  22.507  29.204   5.854
  777PAPC   C5A 9464  22.211  29.104   5.494
  777PAPC   C1B 9465  23.507  29.850   6.666
  777PAPC   C2B 9466  23.453  29.820   6.250
  777PAPC   C3B 9467  23.159  29.735   5.876
  777PAPC   C4B 9468  23.143  29.855   5.405
  778PAPC   NC3 9469  24.070  29.503   7.764
  778PAPC   PO4 9470  24.015  29.207   7.503
  778PAPC   GL1 9471  24.137  29.093   7.137
  778PAPC   GL2 9472  23.906  29.116   6.954
  778PAPC   C1A 9473  24.366  28.966   6.845
  778PAPC   D2A 9474  24.364  28.994   6.466
  778PAPC   D3A 9475  24.179  28.755   6.106
  778PAPC   D4A 9476  24.066  28.789   5.692
  778PAPC   C5A 9477  23.833  28.556   5.427
  778PAPC   C1B 9478  23.878  29.113   6.554
  778PAPC   C2B 9479  23.768  28.988   6.154
  778PAPC   C3B 9480  23.604  28.954   5.676
  778PAPC   C4B 9481  23.464  28.998   5.208
  779PAPC   NC3 9482   6.011   5.992   7.313
  779PAPC   PO4 9483   6.357   6.061   7.101
  779PAPC   GL1 9484   6.262   6.058   6.669
  779PAPC   GL2 9485   6.277   6.330   6.638
  779PAPC   C1A 9486   6.175   5.726   6.554
  779PAPC   D2A 9487   6.266   5.341   6.533
  779PAPC   D3A 9488   6.334   5.179   6.157
  779PAPC   D4A 9489   6.336   5.603   5.977
  779PAPC   C5A 9490   6.387   5.978   6.250
  779PAPC   C1B 9491   6.479   6.382   6.286
  779PAPC   C2B 9492   6.648   6.572   5.905
  779PAPC   C3B 9493   6.594   6.547   5.463
  779PAPC   C4B 9494   6.386   6.549   4.964
  780PAPC   NC3 9495  20.487  11.520   8.069
  780PAPC   PO4 9496  20.731  11.587   7.699
  780PAPC   GL1 9497  20.524  11.563   7.327
  780PAPC   GL2 9498  20.625  11.800   7.279
  780PAPC   C1A 9499  20.208  11.536   7.232
  780PAPC   D2A 9500  20.056  11.807   6.971
  780PAPC   D3A 9501  19.667  11.736   6.821
  780PAPC   D4A 9502  19.517  11.366   6.527
  780PAPC   C5A 9503  19.352  11.085   6.169
  780PAPC   C1B 9504  20.521  11.854   6.956
  780PAPC   C2B 9505  20.371  11.955   6.564
  780PAPC   C3B 9506  20.247  11.885   6.088
  780PAPC   C4B 9507  20.105  11.730   5.617
  781PAPC   NC3 9508   3.387  35.870   7.389
  781PAPC   PO4 9509   3.330  36.255   7.365
  781PAPC   GL1 9510   3.227  36.355   7.038
  781PAPC   GL2 9511   3.454  36.511   6.953
  781PAPC   C1A 9512   3.137  36.127   6.821
  781PAPC   D2A 9513   3.036  36.114   6.465
  781PAPC   D3A 9514   3.185  36.006   6.029
  781PAPC   D4A 9515   3.052  36.062   5.606
  781PAPC   C5A 9516   2.900  35.600   5.715
  781PAPC   C1B 9517   3.334  36.531   6.620
  781PAPC   C2B 9518   3.247  36.598   6.226
  781PAPC   C3B 9519   3.188  36.497   5.767
  781PAPC   C4B 9520   3.133  36.408   5.290
  782PAPC   NC3 9521   0.634  18.172   7.519
  782PAPC   PO4 9522   0.665  17.770   7.509
  782PAPC   GL1 9523   0.612  17.497   7.197
  782PAPC   GL2 9524   0.841  17.485   7.052
  782PAPC   C1A 9525   0.333  17.388   7.003
  782PAPC   D2A 9526   0.374  17.552   6.639
  782PAPC   D3A 9527   0.347  18.011   6.686
  782PAPC   D4A 9528   0.176  18.339   6.946
  782PAPC   C5A 9529  -0.122  18.710   6.932
  782PAPC   C1B 9530   0.827  17.445   6.654
  782PAPC   C2B 9531   0.655  17.279   6.310
  782PAPC   C3B 9532   0.464  17.165   5.878
  782PAPC   C4B 9533   0.503  17.049   5.432
  783PAPC   NC3 9534  12.087   9.514   7.768
  783PAPC   PO4 9535  12.307   9.364   7.494
  783PAPC   GL1 9536  12.511   9.606   7.176
  783PAPC   GL2 9537  12.649   9.413   7.133
  783PAPC   C1A 9538  12.292   9.780   6.937
  783PAPC   D2A 9539  12.238  10.060   6.680
  783PAPC   D3A 9540  12.150   9.930   6.290
  783PAPC   D4A 9541  12.087  10.096   5.865
  783PAPC   C5A 9542  12.217   9.640   5.736
  783PAPC   C1B 9543  12.576   9.477   6.744
  783PAPC   C2B 9544  12.617   9.776   6.436
  783PAPC   C3B 9545  12.555   9.943   5.979
  783PAPC   C4B 9546  12.558  10.069   5.460
  784PAPC   NC3 9547  22.199  22.665   6.999
  784PAPC   PO4 9548  21.987  22.328   7.105
  784PAPC   GL1 9549  21.679  22.587   7.064
  784PAPC   GL2 9550  21.451  22.408   7.017
  784PAPC   C1A 9551  21.820  22.812   6.823
  784PAPC   D2A 9552  21.940  22.937   6.475
  784PAPC   D3A 9553  22.110  23.322   6.561
  784PAPC   D4A 9554  22.336  23.488   6.881
  784PAPC   C5A 9555  22.356  23.915   7.024
  784PAPC   C1B 9556  21.452  22.281   6.693
  784PAPC   C2B 9557  21.418  22.229   6.301
  784PAPC   C3B 9558  21.526  22.098   5.834
  784PAPC   C4B 9559  21.817  22.187   5.430
  785PAPC   NC3 9560  13.112  34.945   7.022
  785PAPC   PO4 9561  13.411  34.762   7.218
  785PAPC   GL1 9562  13.708  34.692   6.923
  785PAPC   GL2 9563  13.470  34.685   6.792
  785PAPC   C1A 9564  13.951  34.736   6.642
  785PAPC   D2A 9565  14.162  35.013   6.456
  785PAPC   D3A 9566  14.132  34.853   6.016
  785PAPC   D4A 9567  13.743  34.629   5.807
  785PAPC   C5A 9568  13.518  34.452   5.434
  785PAPC   C1B 9569  13.277  34.631   6.486
  785PAPC   C2B 9570  13.016  34.431   6.278
  785PAPC   C3B 9571  12.702  34.245   6.005
  785PAPC   C4B 9572  12.591  34.160   5.583
  786PAPC   NC3 9573  14.752   4.959   7.783
  786PAPC   PO4 9574  14.346   4.920   7.872
  786PAPC   GL1 9575  14.197   4.637   7.578
  786PAPC   GL2 9576  14.438   4.683   7.521
  786PAPC   C1A 9577  14.020   4.688   7.237
  786PAPC   D2A 9578  13.884   4.576   6.858
  786PAPC   D3A 9579  13.994   4.589   6.398
  786PAPC   D4A 9580  13.954   4.559   5.958
  786PAPC   C5A 9581  14.142   4.570   5.483
  786PAPC   C1B 9582  14.423   4.625   7.184
  786PAPC   C2B 9583  14.462   4.581   6.765
  786PAPC   C3B 9584  14.528   4.686   6.314
  786PAPC   C4B 9585  14.715   4.635   5.812
  787PAPC   NC3 9586  22.919  30.549   7.382
  787PAPC   PO4 9587  23.191  30.464   7.122
  787PAPC   GL1 9588  22.958  30.184   6.944
  787PAPC   GL2 9589  23.130  30.053   6.783
  787PAPC   C1A 9590  22.617  30.211   6.844
  787PAPC   D2A 9591  22.289  30.117   6.603
  787PAPC   D3A 9592  22.373  30.503   6.521
  787PAPC   D4A 9593  22.628  30.881   6.491
  787PAPC   C5A 9594  23.052  30.894   6.653
  787PAPC   C1B 9595  23.259  30.125   6.465
  787PAPC   C2B 9596  23.206  30.255   6.062
  787PAPC   C3B 9597  22.969  30.353   5.625
  787PAPC   C4B 9598  22.521  30.550   5.418
  788PAPC   NC3 9599  33.063  29.410   8.201
  788PAPC   PO4 9600  33.167  29.699   7.930
  788PAPC   GL1 9601  33.125  29.787   7.567
  788PAPC   GL2 9602  32.836  29.718   7.551
  788PAPC   C1A 9603  33.391  29.785   7.302
  788PAPC   D2A 9604  33.374  29.746   6.945
  788PAPC   D3A 9605  33.280  29.430   6.706
  788PAPC   D4A 9606  33.030  29.096   6.863
  788PAPC   C5A 9607  32.987  29.466   7.227
  788PAPC   C1B 9608  32.576  29.842   7.373
  788PAPC   C2B 9609  32.454  30.016   7.024
  788PAPC   C3B 9610  32.564  29.907   6.525
  788PAPC   C4B 9611  32.651  29.740   6.102
  789PAPC   NC3 9612  11.647  29.216   7.442
  789PAPC   PO4 9613  11.378  29.450   7.232
  789PAPC   GL1 9614  11.247  29.622   6.912
  789PAPC   GL2 9615  11.316  29.348   6.759
  789PAPC   C1A 9616  11.454  29.729   6.574
  789PAPC   D2A 9617  11.690  29.911   6.300
  789PAPC   D3A 9618  11.716  30.093   5.906
  789PAPC   D4A 9619  12.152  29.935   5.723
  789PAPC   C5A 9620  12.516  30.149   5.423
  789PAPC   C1B 9621  11.285  29.429   6.364
  789PAPC   C2B 9622  11.249  29.796   6.142
  789PAPC   C3B 9623  11.267  30.012   5.677
  789PAPC   C4B 9624  11.559  29.920   5.246
  790PAPC   NC3 9625  13.212   1.384   7.407
  790PAPC   PO4 9626  13.227   1.693   7.150
  790PAPC   GL1 9627  13.534   1.781   6.824
  790PAPC   GL2 9628  13.537   2.041   6.925
  790PAPC   C1A 9629  13.810   1.694   6.655
  790PAPC   D2A 9630  13.869   1.521   6.279
  790PAPC   D3A 9631  13.581   1.459   5.990
  790PAPC   D4A 9632  13.619   1.559   5.576
  790PAPC   C5A 9633  14.029   1.539   5.679
  790PAPC   C1B 9634  13.513   2.183   6.590
  790PAPC   C2B 9635  13.645   2.406   6.263
  790PAPC   C3B 9636  13.740   2.792   5.899
  790PAPC   C4B 9637  13.582   3.076   5.537
  791PAPC   NC3 9638  13.022  19.133   7.920
  791PAPC   PO4 9639  12.909  18.988   7.576
  791PAPC   GL1 9640  12.723  19.332   7.341
  791PAPC   GL2 9641  12.603  19.103   7.197
  791PAPC   C1A 9642  12.927  19.413   7.078
  791PAPC   D2A 9643  12.916  19.280   6.715
  791PAPC   D3A 9644  12.912  19.401   6.298
  791PAPC   D4A 9645  13.095  19.366   5.899
  791PAPC   C5A 9646  12.960  19.518   5.417
  791PAPC   C1B 9647  12.684  18.949   6.826
  791PAPC   C2B 9648  12.775  18.866   6.426
  791PAPC   C3B 9649  13.061  18.847   5.998
  791PAPC   C4B 9650  13.440  18.937   5.727
  792PAPC   NC3 9651  34.361   9.343   7.300
  792PAPC   PO4 9652  34.126   9.077   7.109
  792PAPC   GL1 9653  34.262   9.042   6.640
  792PAPC   GL2 9654  34.462   9.275   6.715
  792PAPC   C1A 9655  34.204   8.822   6.296
  792PAPC   D2A 9656  34.355   8.661   5.923
  792PAPC   D3A 9657  34.183   8.455   5.627
  792PAPC   D4A 9658  33.994   8.314   5.306
  792PAPC   C5A 9659  34.286   7.988   5.414
  792PAPC   C1B 9660  34.540   9.552   6.464
  792PAPC   C2B 9661  34.636   9.704   6.119
  792PAPC   C3B 9662  34.765   9.537   5.715
  792PAPC   C4B 9663  34.862   9.307   5.280
  793PAPC   NC3 9664  15.980   4.988   7.829
  793PAPC   PO4 9665  15.583   4.878   7.766
  793PAPC   GL1 9666  15.156   4.653   7.612
  793PAPC   GL2 9667  15.384   4.600   7.407
  793PAPC   C1A 9668  14.828   4.560   7.502
  793PAPC   D2A 9669  14.634   4.276   7.399
  793PAPC   D3A 9670  14.676   4.174   6.948
  793PAPC   D4A 9671  14.543   3.992   6.549
  793PAPC   C5A 9672  14.244   4.124   6.233
  793PAPC   C1B 9673  15.358   4.845   7.113
  793PAPC   C2B 9674  15.187   5.191   6.979
  793PAPC   C3B 9675  14.784   5.346   6.954
  793PAPC   C4B 9676  14.615   5.787   6.839
  794PAPC   NC3 9677  34.256   8.234   7.581
  794PAPC   PO4 9678  34.236   8.572   7.310
  794PAPC   GL1 9679  33.991   8.588   6.924
  794PAPC   GL2 9680  34.286   8.621   6.835
  794PAPC   C1A 9681  33.867   8.239   6.857
  794PAPC   D2A 9682  33.663   8.078   6.548
  794PAPC   D3A 9683  33.903   7.767   6.330
  794PAPC   D4A 9684  34.287   7.484   6.501
  794PAPC   C5A 9685  34.317   7.163   6.892
  794PAPC   C1B 9686  34.446   8.596   6.543
  794PAPC   C2B 9687  34.764   8.532   6.259
  794PAPC   C3B 9688  35.106   8.397   5.937
  794PAPC   C4B 9689  35.502   8.518   5.688
  795PAPC   NC3 9690   5.086  26.890   7.401
  795PAPC   PO4 9691   5.373  26.597   7.370
  795PAPC   GL1 9692   5.214  26.441   7.015
  795PAPC   GL2 9693   4.947  26.475   7.069
  795PAPC   C1A 9694   5.392  26.360   6.683
  795PAPC   D2A 9695   5.690  26.170   6.596
  795PAPC   D3A 9696   5.381  25.845   6.521
  795PAPC   D4A 9697   5.514  26.023   6.138
  795PAPC   C5A 9698   5.461  26.494   6.153
  795PAPC   C1B 9699   4.858  26.633   6.758
  795PAPC   C2B 9700   5.030  26.861   6.524
  795PAPC   C3B 9701   5.172  27.187   6.150
  795PAPC   C4B 9702   5.419  27.291   5.750
  796PAPC   NC3 9703  32.394  16.291   8.097
  796PAPC   PO4 9704  32.572  15.895   7.988
  796PAPC   GL1 9705  32.471  15.794   7.654
  796PAPC   GL2 9706  32.568  15.590   7.527
  796PAPC   C1A 9707  32.513  16.026   7.407
  796PAPC   D2A 9708  32.331  16.199   7.088
  796PAPC   D3A 9709  32.371  16.047   6.661
  796PAPC   D4A 9710  32.124  16.047   6.256
  796PAPC   C5A 9711  32.241  16.408   5.922
  796PAPC   C1B 9712  32.617  15.585   7.175
  796PAPC   C2B 9713  32.566  15.614   6.737
  796PAPC   C3B 9714  32.414  15.608   6.247
  796PAPC   C4B 9715  32.322  15.377   5.802
  797PAPC   NC3 9716   8.590  21.123   7.216
  797PAPC   PO4 9717   8.642  21.506   7.091
  797PAPC   GL1 9718   8.420  21.819   6.870
  797PAPC   GL2 9719   8.267  21.531   6.721
  797PAPC   C1A 9720   8.525  22.088   6.617
  797PAPC   D2A 9721   8.432  22.455   6.525
  797PAPC   D3A 9722   8.075  22.545   6.299
  797PAPC   D4A 9723   7.825  22.392   6.596
  797PAPC   C5A 9724   7.442  22.289   6.364
  797PAPC   C1B 9725   8.205  21.541   6.363
  797PAPC   C2B 9726   8.339  21.450   5.965
  797PAPC   C3B 9727   8.554  21.514   5.490
  797PAPC   C4B 9728   8.527  21.311   5.076
  798PAPC   NC3 9729  25.186   8.909   7.544
  798PAPC   PO4 9730  25.507   8.777   7.555
  798PAPC   GL1 9731  25.879   8.624   7.266
  798PAPC   GL2 9732  25.820   8.934   7.264
  798PAPC   C1A 9733  25.896   8.449   6.920
  798PAPC   D2A 9734  25.782   8.490   6.508
  798PAPC   D3A 9735  25.905   8.120   6.200
  798PAPC   D4A 9736  26.052   8.138   5.789
  798PAPC   C5A 9737  26.207   8.577   5.626
  798PAPC   C1B 9738  25.663   8.987   6.951
  798PAPC   C2B 9739  25.797   8.990   6.503
  798PAPC   C3B 9740  25.753   8.999   5.994
  798PAPC   C4B 9741  25.782   8.788   5.551
  799PAPC   NC3 9742  16.362   0.958   7.154
  799PAPC   PO4 9743  15.975   0.939   7.117
  799PAPC   GL1 9744  15.905   1.156   6.735
  799PAPC   GL2 9745  16.189   1.062   6.654
  799PAPC   C1A 9746  15.656   1.142   6.441
  799PAPC   D2A 9747  15.632   1.152   6.052
  799PAPC   D3A 9748  15.774   1.188   5.576
  799PAPC   D4A 9749  15.954   1.093   5.139
  799PAPC   C5A 9750  15.633   0.887   4.797
  799PAPC   C1B 9751  16.097   1.113   6.310
  799PAPC   C2B 9752  16.155   1.157   5.873
  799PAPC   C3B 9753  16.299   1.413   5.469
  799PAPC   C4B 9754  16.321   1.434   4.987
  800PAPC   NC3 9755   5.130  11.229   8.063
  800PAPC   PO4 9756   5.119  11.532   7.741
  800PAPC   GL1 9757   5.005  11.629   7.320
  800PAPC   GL2 9758   5.075  11.289   7.336
  800PAPC   C1A 9759   5.041  11.754   7.007
  800PAPC   D2A 9760   5.177  12.113   6.833
  800PAPC   D3A 9761   5.478  12.003   6.499
  800PAPC   D4A 9762   5.665  12.049   6.932
  800PAPC   C5A 9763   6.111  12.271   7.019
  800PAPC   C1B 9764   5.099  11.246   6.953
  800PAPC   C2B 9765   5.051  11.119   6.523
  800PAPC   C3B 9766   4.965  11.229   6.061
  800PAPC   C4B 9767   5.325  11.392   5.756
  801PAPC   NC3 9768  20.414  28.437   6.942
  801PAPC   PO4 9769  20.225  28.117   7.089
  801PAPC   GL1 9770  19.990  27.998   6.821
  801PAPC   GL2 9771  19.772  28.007   6.962
  801PAPC   C1A 9772  20.007  27.765   6.555
  801PAPC   D2A 9773  19.913  27.873   6.150
  801PAPC   D3A 9774  19.561  27.668   6.042
  801PAPC   D4A 9775  19.676  27.472   5.689
  801PAPC   C5A 9776  20.124  27.452   5.608
  801PAPC   C1B 9777  19.480  28.170   6.783
  801PAPC   C2B 9778  19.190  28.274   6.474
  801PAPC   C3B 9779  19.076  28.416   5.973
  801PAPC   C4B 9780  19.072  28.282   5.512
  802PAPC   NC3 9781  10.694  20.450   7.094
  802PAPC   PO4 9782  10.710  20.739   6.788
  802PAPC   GL1 9783  10.648  20.806   6.279
  802PAPC   GL2 9784  10.389  20.806   6.412
  802PAPC   C1A 9785  10.598  21.166   6.166
  802PAPC   D2A 9786  10.573  21.529   5.951
  802PAPC   D3A 9787  10.641  21.707   5.564
  802PAPC   D4A 9788  10.555  21.706   5.154
  802PAPC   C5A 9789  10.564  21.314   4.834
  802PAPC   C1B 9790  10.197  20.771   6.129
  802PAPC   C2B 9791  10.185  20.709   5.739
  802PAPC   C3B 9792  10.192  20.613   5.226
  802PAPC   C4B 9793  10.058  20.239   5.005
  803PAPC   NC3 9794  15.017   8.905   7.570
  803PAPC   PO4 9795  14.785   9.223   7.614
  803PAPC   GL1 9796  14.911   9.316   7.159
  803PAPC   GL2 9797  15.032   9.061   7.149
  803PAPC   C1A 9798  15.095   9.545   7.012
  803PAPC   D2A 9799  15.399   9.607   6.757
  803PAPC   D3A 9800  15.076   9.601   6.470
  803PAPC   D4A 9801  15.024   9.494   6.081
  803PAPC   C5A 9802  14.759   9.355   5.703
  803PAPC   C1B 9803  15.017   9.130   6.745
  803PAPC   C2B 9804  15.046   9.116   6.376
  803PAPC   C3B 9805  15.099   8.998   5.908
  803PAPC   C4B 9806  15.351   8.906   5.559
  804PAPC   NC3 9807  10.471   4.310   7.154
  804PAPC   PO4 9808  10.800   4.526   7.191
  804PAPC   GL1 9809  10.669   4.527   6.707
  804PAPC   GL2 9810  10.402   4.475   6.750
  804PAPC   C1A 9811  10.666   4.561   6.335
  804PAPC   D2A 9812  10.843   4.582   6.014
  804PAPC   D3A 9813  10.738   4.618   5.531
  804PAPC   D4A 9814  11.075   4.655   5.243
  804PAPC   C5A 9815  11.468   4.446   4.960
  804PAPC   C1B 9816  10.216   4.560   6.465
  804PAPC   C2B 9817  10.297   4.574   6.082
  804PAPC   C3B 9818  10.214   4.610   5.613
  804PAPC   C4B 9819  10.286   4.495   5.139
  805PAPC   NC3 9820  28.324   0.286   7.525
  805PAPC   PO4 9821  28.087   0.516   7.763
  805PAPC   GL1 9822  27.878   0.650   7.353
  805PAPC   GL2 9823  28.040   0.563   7.207
  805PAPC   C1A 9824  27.661   0.616   7.112
  805PAPC   D2A 9825  27.692   0.559   6.694
  805PAPC   D3A 9826  27.753   0.853   6.343
  805PAPC   D4A 9827  27.914   0.972   5.936
  805PAPC   C5A 9828  27.706   0.658   5.626
  805PAPC   C1B 9829  28.134   0.494   6.841
  805PAPC   C2B 9830  28.076   0.425   6.419
  805PAPC   C3B 9831  28.094   0.511   5.936
  805PAPC   C4B 9832  28.124   0.273   5.522
  806PAPC   NC3 9833  10.408  26.975   7.227
  806PAPC   PO4 9834  10.183  26.894   6.941
  806PAPC   GL1 9835  10.279  27.175   6.767
  806PAPC   GL2 9836  10.542  27.305   6.834
  806PAPC   C1A 9837  10.371  27.090   6.441
  806PAPC   D2A 9838  10.212  27.229   6.091
  806PAPC   D3A 9839  10.185  27.390   5.695
  806PAPC   D4A 9840  10.523  27.497   5.420
  806PAPC   C5A 9841  10.965  27.431   5.165
  806PAPC   C1B 9842  10.833  27.456   6.794
  806PAPC   C2B 9843  11.135  27.322   6.551
  806PAPC   C3B 9844  11.182  27.174   6.112
  806PAPC   C4B 9845  11.241  27.350   5.619
  807PAPC   NC3 9846  31.484  35.626   7.762
  807PAPC   PO4 9847  31.226  35.350   7.572
  807PAPC   GL1 9848  31.237  35.143   7.176
  807PAPC   GL2 9849  31.273  35.441   7.083
  807PAPC   C1A 9850  31.394  35.011   6.853
  807PAPC   D2A 9851  31.364  34.894   6.477
  807PAPC   D3A 9852  31.146  35.041   6.129
  807PAPC   D4A 9853  31.409  35.248   5.864
  807PAPC   C5A 9854  31.567  35.716   5.958
  807PAPC   C1B 9855  31.564  35.457   6.815
  807PAPC   C2B 9856  31.883  35.529   6.493
  807PAPC   C3B 9857  31.951  35.480   6.059
  807PAPC   C4B 9858  32.092  35.356   5.595
  808PAPC   NC3 9859  13.447  35.693   6.762
  808PAPC   PO4 9860  13.378  36.109   6.734
  808PAPC   GL1 9861  13.337  36.230   6.339
  808PAPC   GL2 9862  13.308  35.893   6.270
  808PAPC   C1A 9863  13.577  36.523   6.256
  808PAPC   D2A 9864  13.891  36.703   6.432
  808PAPC   D3A 9865  14.052  36.632   6.026
  808PAPC   D4A 9866  13.783  36.645   5.636
  808PAPC   C5A 9867  13.712  36.997   5.933
  808PAPC   C1B 9868  13.159  35.791   5.965
  808PAPC   C2B 9869  13.374  35.753   5.600
  808PAPC   C3B 9870  13.516  35.634   5.129
  808PAPC   C4B 9871  13.413  35.823   4.730
  809PAPC   NC3 9872  18.902  20.823   8.362
  809PAPC   PO4 9873  19.121  20.885   8.046
  809PAPC   GL1 9874  19.148  21.145   7.628
  809PAPC   GL2 9875  19.331  20.898   7.613
  809PAPC   C1A 9876  19.224  21.240   7.309
  809PAPC   D2A 9877  19.299  21.270   6.889
  809PAPC   D3A 9878  19.172  21.433   6.529
  809PAPC   D4A 9879  19.128  21.392   6.066
  809PAPC   C5A 9880  18.931  21.720   5.803
  809PAPC   C1B 9881  19.348  20.785   7.192
  809PAPC   C2B 9882  19.402  20.775   6.734
  809PAPC   C3B 9883  19.777  20.654   6.472
  809PAPC   C4B 9884  19.936  20.574   6.027
  810PAPC   NC3 9885  19.091   4.675   7.611
  810PAPC   PO4 9886  18.778   4.551   7.467
  810PAPC   GL1 9887  18.479   4.512   7.116
  810PAPC   GL2 9888  18.753   4.537   7.023
  810PAPC   C1A 9889  18.200   4.321   6.947
  810PAPC   D2A 9890  18.124   3.996   6.869
  810PAPC   D3A 9891  17.745   3.926   6.682
  810PAPC   D4A 9892  17.298   4.023   6.625
  810PAPC   C5A 9893  17.154   4.240   7.050
  810PAPC   C1B 9894  18.657   4.484   6.720
  810PAPC   C2B 9895  18.294   4.433   6.477
  810PAPC   C3B 9896  17.858   4.362   6.337
  810PAPC   C4B 9897  17.412   4.231   6.169
  811PAPC   NC3 9898  20.397  26.447   7.884
  811PAPC   PO4 9899  20.365  26.661   7.521
  811PAPC   GL1 9900  20.107  26.515   7.287
  811PAPC   GL2 9901  20.273  26.488   7.035
  811PAPC   C1A 9902  19.842  26.312   7.210
  811PAPC   D2A 9903  19.969  26.082   6.900
  811PAPC   D3A 9904  20.444  26.016   6.894
  811PAPC   D4A 9905  20.622  25.990   6.417
  811PAPC   C5A 9906  20.144  26.110   6.443
  811PAPC   C1B 9907  19.997  26.505   6.842
  811PAPC   C2B 9908  19.924  26.610   6.431
  811PAPC   C3B 9909  20.015  26.756   5.936
  811PAPC   C4B 9910  20.104  26.957   5.494
  812PAPC   NC3 9911   6.308  14.849   7.795
  812PAPC   PO4 9912   6.147  15.111   7.570
  812PAPC   GL1 9913   6.263  15.197   7.155
  812PAPC   GL2 9914   6.068  15.004   7.031
  812PAPC   C1A 9915   6.503  15.291   6.895
  812PAPC   D2A 9916   6.810  15.611   6.808
  812PAPC   D3A 9917   7.013  15.920   6.530
  812PAPC   D4A 9918   6.790  15.623   6.287
  812PAPC   C5A 9919   7.049  15.670   5.878
  812PAPC   C1B 9920   6.049  15.014   6.651
  812PAPC   C2B 9921   5.825  14.949   6.271
  812PAPC   C3B 9922   5.798  14.619   5.941
  812PAPC   C4B 9923   5.869  14.270   5.550
  813PAPC   NC3 9924   9.508  12.033   7.512
  813PAPC   PO4 9925   9.249  12.088   7.232
  813PAPC   GL1 9926   9.377  11.902   6.921
  813PAPC   GL2 9927   9.210  12.028   6.760
  813PAPC   C1A 9928   9.648  11.928   6.680
  813PAPC   D2A 9929  10.020  11.929   6.565
  813PAPC   D3A 9930  10.314  12.020   6.342
  813PAPC   D4A 9931  10.266  11.966   5.873
  813PAPC   C5A 9932  10.424  12.215   5.488
  813PAPC   C1B 9933   9.148  11.901   6.398
  813PAPC   C2B 9934   9.064  11.886   5.943
  813PAPC   C3B 9935   9.215  12.003   5.436
  813PAPC   C4B 9936   9.421  12.243   5.062
  814PAPC   NC3 9937  34.815   7.579   7.236
  814PAPC   PO4 9938  34.953   7.238   7.485
  814PAPC   GL1 9939  34.896   7.073   7.141
  814PAPC   GL2 9940  34.742   7.241   6.976
  814PAPC   C1A 9941  35.057   6.965   6.866
  814PAPC   D2A 9942  35.235   6.636   6.772
  814PAPC   D3A 9943  35.259   6.726   6.363
  814PAPC   D4A 9944  35.488   6.994   6.099
  814PAPC   C5A 9945  35.542   7.059   5.663
  814PAPC   C1B 9946  34.786   7.234   6.598
  814PAPC   C2B 9947  34.618   7.202   6.171
  814PAPC   C3B 9948  34.543   7.237   5.705
  814PAPC   C4B 9949  34.610   7.238   5.227
  815PAPC   NC3 9950  17.555   8.762   7.660
  815PAPC   PO4 9951  17.608   8.359   7.701
  815PAPC   GL1 9952  17.704   8.322   7.363
  815PAPC   GL2 9953  17.365   8.449   7.242
  815PAPC   C1A 9954  17.892   8.277   7.040
  815PAPC   D2A 9955  17.896   8.555   6.727
  815PAPC   D3A 9956  17.719   8.933   6.572
  815PAPC   D4A 9957  17.529   8.984   6.126
  815PAPC   C5A 9958  17.935   9.062   5.995
  815PAPC   C1B 9959  17.478   8.379   6.855
  815PAPC   C2B 9960  17.567   8.460   6.427
  815PAPC   C3B 9961  17.432   8.549   5.999
  815PAPC   C4B 9962  17.126   8.735   5.669
  816PAPC   NC3 9963  21.608  16.889   7.874
  816PAPC   PO4 9964  21.437  17.156   7.584
  816PAPC   GL1 9965  21.092  17.162   7.308
  816PAPC   GL2 9966  21.156  16.912   7.189
  816PAPC   C1A 9967  21.213  17.421   7.108
  816PAPC   D2A 9968  21.377  17.567   6.717
  816PAPC   D3A 9969  21.739  17.411   6.433
  816PAPC   D4A 9970  21.981  17.308   6.074
  816PAPC   C5A 9971  22.270  16.977   6.147
  816PAPC   C1B 9972  21.266  16.996   6.881
  816PAPC   C2B 9973  21.291  17.058   6.489
  816PAPC   C3B 9974  21.365  17.191   6.077
  816PAPC   C4B 9975  21.488  17.473   5.680
  817PAPC   NC3 9976  24.725  14.531   7.800
  817PAPC   PO4 9977  24.301  14.457   7.703
  817PAPC   GL1 9978  24.196  14.487   7.300
  817PAPC   GL2 9979  24.432  14.690   7.226
  817PAPC   C1A 9980  23.951  14.677   7.111
  817PAPC   D2A 9981  23.710  14.624   6.811
  817PAPC   D3A 9982  24.033  14.680   6.512
  817PAPC   D4A 9983  24.143  14.525   6.061
  817PAPC   C5A 9984  23.784  14.533   5.700
  817PAPC   C1B 9985  24.524  14.734   6.889
  817PAPC   C2B 9986  24.517  14.688   6.473
  817PAPC   C3B 9987  24.633  14.557   5.978
  817PAPC   C4B 9988  24.983  14.722   5.700
  818PAPC   NC3 9989  17.938   2.746   7.443
  818PAPC   PO4 9990  17.561   2.764   7.409
  818PAPC   GL1 9991  17.231   3.030   7.251
  818PAPC   GL2 9992  17.123   2.819   7.133
  818PAPC   C1A 9993  17.090   3.324   7.041
  818PAPC   D2A 9994  17.386   3.541   6.895
  818PAPC   D3A 9995  17.654   3.571   7.233
  818PAPC   D4A 9996  17.615   4.009   7.158
  818PAPC   C5A 9997  17.628   4.385   6.890
  818PAPC   C1B 9998  17.237   2.618   6.855
  818PAPC   C2B 9999  17.333   2.511   6.461
  818PAPC   C3B10000  17.414   2.358   5.962
  818PAPC   C4B10001  17.520   2.376   5.504
  819PAPC   NC310002   1.917   1.341   7.249
  819PAPC   PO410003   1.516   1.489   7.274
  819PAPC   GL110004   1.506   1.446   6.890
  819PAPC   GL210005   1.750   1.255   6.828
  819PAPC   C1A10006   1.337   1.347   6.554
  819PAPC   D2A10007   1.456   1.081   6.301
  819PAPC   D3A10008   1.392   0.901   5.874
  819PAPC   D4A10009   1.248   1.048   5.372
  819PAPC   C5A10010   1.494   1.101   4.930
  819PAPC   C1B10011   1.905   1.181   6.512
  819PAPC   C2B10012   1.975   1.070   6.098
  819PAPC   C3B10013   1.835   0.921   5.678
  819PAPC   C4B10014   1.677   0.700   5.259
  820PAPC   NC310015   7.211  12.530   7.366
  820PAPC   PO410016   6.877  12.779   7.323
  820PAPC   GL110017   6.461  12.722   7.165
  820PAPC   GL210018   6.535  12.978   6.952
  820PAPC   C1A10019   6.125  12.771   6.918
  820PAPC   D2A10020   5.868  13.016   6.686
  820PAPC   D3A10021   5.755  13.473   6.749
  820PAPC   D4A10022   5.699  13.836   6.538
  820PAPC   C5A10023   5.937  13.603   6.199
  820PAPC   C1B10024   6.384  13.128   6.641
  820PAPC   C2B10025   6.287  13.218   6.245
  820PAPC   C3B10026   6.170  13.409   5.759
  820PAPC   C4B10027   6.302  13.275   5.323
  821PAPC   NC310028  17.454  13.598   7.088
  821PAPC   PO410029  17.069  13.523   7.041
  821PAPC   GL110030  17.257  13.424   6.644
  821PAPC   GL210031  17.264  13.781   6.723
  821PAPC   C1A10032  17.389  13.261   6.352
  821PAPC   D2A10033  17.483  13.119   6.012
  821PAPC   D3A10034  17.464  13.073   5.555
  821PAPC   D4A10035  17.687  13.374   5.350
  821PAPC   C5A10036  17.621  13.566   5.784
  821PAPC   C1B10037  17.244  13.888   6.374
  821PAPC   C2B10038  17.390  13.937   5.975
  821PAPC   C3B10039  17.565  14.032   5.553
  821PAPC   C4B10040  17.647  14.174   5.077
  822PAPC   NC310041  25.086  30.519   7.676
  822PAPC   PO410042  25.008  30.562   7.299
  822PAPC   GL110043  25.059  30.488   6.893
  822PAPC   GL210044  25.311  30.406   6.823
  822PAPC   C1A10045  24.822  30.594   6.643
  822PAPC   D2A10046  24.717  30.330   6.428
  822PAPC   D3A10047  24.590  30.366   6.009
  822PAPC   D4A10048  24.519  30.457   5.572
  822PAPC   C5A10049  24.181  30.130   5.694
  822PAPC   C1B10050  25.474  30.587   6.540
  822PAPC   C2B10051  25.424  30.754   6.128
  822PAPC   C3B10052  25.310  30.875   5.660
  822PAPC   C4B10053  25.313  30.805   5.170
  823PAPC   NC310054   0.266  32.654   7.561
  823PAPC   PO410055   0.310  32.990   7.342
  823PAPC   GL110056   0.687  33.007   7.136
  823PAPC   GL210057   0.846  32.974   7.382
  823PAPC   C1A10058   0.942  32.887   6.911
  823PAPC   D2A10059   0.795  32.846   6.551
  823PAPC   D3A10060   0.760  32.961   6.068
  823PAPC   D4A10061   0.970  32.708   5.693
  823PAPC   C5A10062   0.728  32.399   5.942
  823PAPC   C1B10063   1.176  32.904   7.237
  823PAPC   C2B10064   1.364  32.731   6.953
  823PAPC   C3B10065   1.271  32.612   6.529
  823PAPC   C4B10066   1.206  32.690   6.092
  824PAPC   NC310067  25.331  19.551   7.294
  824PAPC   PO410068  25.451  19.312   7.554
  824PAPC   GL110069  25.191  19.003   7.327
  824PAPC   GL210070  25.025  19.214   7.331
  824PAPC   C1A10071  25.180  19.007   6.986
  824PAPC   D2A10072  25.101  19.003   6.577
  824PAPC   D3A10073  25.079  19.177   6.213
  824PAPC   D4A10074  24.779  19.108   5.899
  824PAPC   C5A10075  24.939  18.799   5.560
  824PAPC   C1B10076  24.969  19.361   7.022
  824PAPC   C2B10077  24.970  19.494   6.620
  824PAPC   C3B10078  24.768  19.566   6.207
  824PAPC   C4B10079  24.457  19.654   5.865
  825PAPC   NC310080  10.904  33.959   7.606
  825PAPC   PO410081  10.715  33.611   7.612
  825PAPC   GL110082  10.980  33.314   7.383
  825PAPC   GL210083  11.218  33.638   7.456
  825PAPC   C1A10084  10.951  33.267   7.028
  825PAPC   D2A10085  10.608  33.300   6.848
  825PAPC   D3A10086  10.353  32.929   6.849
  825PAPC   D4A10087  10.117  32.822   6.508
  825PAPC   C5A10088  10.255  32.819   6.037
  825PAPC   C1B10089  11.276  33.636   7.101
  825PAPC   C2B10090  11.166  33.625   6.682
  825PAPC   C3B10091  11.113  33.738   6.274
  825PAPC   C4B10092  11.062  33.698   5.792
  826PAPC   NC310093  21.982  14.008   6.860
  826PAPC   PO410094  22.173  14.096   7.189
  826PAPC   GL110095  22.549  13.859   7.062
  826PAPC   GL210096  22.442  13.616   7.197
  826PAPC   C1A10097  22.582  13.734   6.730
  826PAPC   D2A10098  22.456  13.863   6.371
  826PAPC   D3A10099  22.292  13.670   6.019
  826PAPC   D4A10100  22.221  13.630   5.547
  826PAPC   C5A10101  22.025  13.266   5.326
  826PAPC   C1B10102  22.585  13.372   6.961
  826PAPC   C2B10103  22.685  13.307   6.552
  826PAPC   C3B10104  22.855  13.197   6.067
  826PAPC   C4B10105  23.085  13.476   5.687
  827PAPC   NC310106   8.875  32.021   7.127
  827PAPC   PO410107   9.069  31.807   7.429
  827PAPC   GL110108   9.068  31.523   7.170
  827PAPC   GL210109   8.847  31.594   6.918
  827PAPC   C1A10110   9.396  31.534   7.038
  827PAPC   D2A10111   9.656  31.767   6.816
  827PAPC   D3A10112   9.573  31.954   6.400
  827PAPC   D4A10113   9.693  32.049   5.972
  827PAPC   C5A10114   9.862  32.193   5.581
  827PAPC   C1B10115   8.770  31.481   6.587
  827PAPC   C2B10116   8.586  31.352   6.243
  827PAPC   C3B10117   8.337  31.289   5.835
  827PAPC   C4B10118   7.907  31.284   5.472
  828PAPC   NC310119  28.113   4.620   7.571
  828PAPC   PO410120  28.458   4.665   7.731
  828PAPC   GL110121  28.639   4.812   7.338
  828PAPC   GL210122  28.353   4.824   7.252
  828PAPC   C1A10123  28.901   4.696   7.055
  828PAPC   D2A10124  28.967   4.709   6.637
  828PAPC   D3A10125  29.287   4.645   6.352
  828PAPC   D4A10126  29.097   4.630   5.877
  828PAPC   C5A10127  28.837   4.983   5.642
  828PAPC   C1B10128  28.169   4.882   6.969
  828PAPC   C2B10129  28.135   5.176   6.711
  828PAPC   C3B10130  27.914   5.176   6.356
  828PAPC   C4B10131  27.806   5.057   5.988
  829PAPC   NC310132   5.861   9.386   7.740
  829PAPC   PO410133   5.475   9.404   7.639
  829PAPC   GL110134   5.140   9.689   7.395
  829PAPC   GL210135   4.966   9.497   7.382
  829PAPC   C1A10136   5.044  10.039   7.356
  829PAPC   D2A10137   5.168  10.343   7.154
  829PAPC   D3A10138   4.916  10.544   6.809
  829PAPC   D4A10139   4.869  10.596   6.375
  829PAPC   C5A10140   5.044  10.668   5.967
  829PAPC   C1B10141   4.926   9.486   7.007
  829PAPC   C2B10142   4.968   9.473   6.570
  829PAPC   C3B10143   5.134   9.376   6.154
  829PAPC   C4B10144   5.000   9.629   5.704
  830PAPC   NC310145   4.749   4.844   7.648
  830PAPC   PO410146   4.599   4.564   7.484
  830PAPC   GL110147   4.686   4.552   6.995
  830PAPC   GL210148   4.598   4.337   6.954
  830PAPC   C1A10149   4.674   4.696   6.694
  830PAPC   D2A10150   4.644   4.574   6.333
  830PAPC   D3A10151   4.706   4.530   5.906
  830PAPC   D4A10152   4.960   4.404   5.564
  830PAPC   C5A10153   4.781   4.580   5.165
  830PAPC   C1B10154   4.468   4.226   6.638
  830PAPC   C2B10155   4.228   4.189   6.240
  830PAPC   C3B10156   4.432   4.135   5.815
  830PAPC   C4B10157   4.526   4.022   5.320
  831PAPC   NC310158  25.582   6.115   7.239
  831PAPC   PO410159  25.686   6.346   7.524
  831PAPC   GL110160  25.690   6.662   7.286
  831PAPC   GL210161  25.424   6.560   7.108
  831PAPC   C1A10162  25.993   6.850   7.105
  831PAPC   D2A10163  26.128   6.902   6.751
  831PAPC   D3A10164  25.829   7.113   6.502
  831PAPC   D4A10165  26.131   7.207   6.213
  831PAPC   C5A10166  26.407   7.294   5.798
  831PAPC   C1B10167  25.346   6.492   6.730
  831PAPC   C2B10168  25.319   6.620   6.338
  831PAPC   C3B10169  25.263   6.569   5.840
  831PAPC   C4B10170  25.023   6.779   5.468
  832PAPC   NC310171  16.037  20.491   7.687
  832PAPC   PO410172  16.344  20.320   7.537
  832PAPC   GL110173  16.380  20.229   7.146
  832PAPC   GL210174  16.077  20.110   7.104
  832PAPC   C1A10175  16.624  20.076   6.926
  832PAPC   D2A10176  16.677  20.259   6.556
  832PAPC   D3A10177  17.051  20.073   6.459
  832PAPC   D4A10178  17.306  20.043   6.073
  832PAPC   C5A10179  17.191  20.363   5.698
  832PAPC   C1B10180  15.975  20.127   6.712
  832PAPC   C2B10181  16.110  20.223   6.374
  832PAPC   C3B10182  16.253  20.135   5.910
  832PAPC   C4B10183  16.320  19.792   5.617
  833PAPC   NC310184   7.898   0.311   7.856
  833PAPC   PO410185   7.794   0.134   7.547
  833PAPC   GL110186   7.539   0.209   7.159
  833PAPC   GL210187   7.763   0.325   7.058
  833PAPC   C1A10188   7.375  -0.007   6.905
  833PAPC   D2A10189   7.265  -0.302   6.682
  833PAPC   D3A10190   6.979  -0.435   6.303
  833PAPC   D4A10191   7.286  -0.241   5.974
  833PAPC   C5A10192   7.713  -0.303   5.996
  833PAPC   C1B10193   7.754   0.573   6.846
  833PAPC   C2B10194   7.785   0.763   6.519
  833PAPC   C3B10195   7.799   0.928   6.105
  833PAPC   C4B10196   7.771   1.102   5.625
  834PAPC   NC310197  30.357  22.164   6.851
  834PAPC   PO410198  30.661  22.299   7.084
  834PAPC   GL110199  30.870  22.241   6.720
  834PAPC   GL210200  30.730  22.381   6.497
  834PAPC   C1A10201  30.965  22.000   6.474
  834PAPC   D2A10202  30.887  21.719   6.216
  834PAPC   D3A10203  30.807  21.336   6.004
  834PAPC   D4A10204  30.837  21.704   5.712
  834PAPC   C5A10205  30.963  21.670   5.277
  834PAPC   C1B10206  30.567  22.088   6.349
  834PAPC   C2B10207  30.390  21.948   6.021
  834PAPC   C3B10208  30.188  21.833   5.579
  834PAPC   C4B10209  30.422  21.489   5.241
  835PAPC   NC310210  29.810  28.551   8.015
  835PAPC   PO410211  30.019  28.626   7.694
  835PAPC   GL110212  30.069  28.233   7.391
  835PAPC   GL210213  29.907  28.403   7.327
  835PAPC   C1A10214  30.321  28.288   7.218
  835PAPC   D2A10215  30.652  28.250   6.985
  835PAPC   D3A10216  30.926  28.369   7.289
  835PAPC   D4A10217  30.990  28.785   7.182
  835PAPC   C5A10218  30.752  29.045   7.428
  835PAPC   C1B10219  30.057  28.647   7.100
  835PAPC   C2B10220  29.928  28.750   6.686
  835PAPC   C3B10221  29.850  28.841   6.248
  835PAPC   C4B10222  29.770  28.995   5.814
  836PAPC   NC310223  30.261  33.286   7.443
  836PAPC   PO410224  30.073  33.508   7.137
  836PAPC   GL110225  30.242  33.533   6.695
  836PAPC   GL210226  29.955  33.586   6.636
  836PAPC   C1A10227  30.295  33.507   6.345
  836PAPC   D2A10228  30.257  33.457   5.975
  836PAPC   D3A10229  30.027  33.771   5.854
  836PAPC   D4A10230  29.834  34.065   6.098
  836PAPC   C5A10231  30.127  34.138   6.475
  836PAPC   C1B10232  29.651  33.533   6.370
  836PAPC   C2B10233  29.657  33.440   5.978
  836PAPC   C3B10234  29.577  33.349   5.523
  836PAPC   C4B10235  29.486  33.622   5.189
  837PAPC   NC310236   6.926  30.205   7.080
  837PAPC   PO410237   6.670  30.399   7.311
  837PAPC   GL110238   6.625  30.555   7.011
  837PAPC   GL210239   6.374  30.451   6.917
  837PAPC   C1A10240   6.728  30.748   6.734
  837PAPC   D2A10241   6.705  30.855   6.381
  837PAPC   D3A10242   6.845  31.019   5.972
  837PAPC   D4A10243   6.967  31.279   5.581
  837PAPC   C5A10244   6.864  31.615   5.317
  837PAPC   C1B10245   6.281  30.613   6.633
  837PAPC   C2B10246   6.223  30.683   6.232
  837PAPC   C3B10247   6.426  30.835   5.819
  837PAPC   C4B10248   6.339  30.910   5.435
  838PAPC   NC310249  22.560  31.847   7.538
  838PAPC   PO410250  22.399  32.210   7.550
  838PAPC   GL110251  22.424  32.492   7.199
  838PAPC   GL210252  22.650  32.493   7.134
  838PAPC   C1A10253  22.265  32.363   6.906
  838PAPC   D2A10254  22.034  32.297   6.629
  838PAPC   D3A10255  22.171  32.365   6.234
  838PAPC   D4A10256  22.233  32.573   5.868
  838PAPC   C5A10257  22.258  32.834   5.457
  838PAPC   C1B10258  22.664  32.418   6.792
  838PAPC   C2B10259  22.673  32.233   6.418
  838PAPC   C3B10260  22.564  32.118   5.950
  838PAPC   C4B10261  22.578  32.279   5.470
  839PAPC   NC310262  24.081  33.697   7.300
  839PAPC   PO410263  24.410  33.906   7.219
  839PAPC   GL110264  24.607  33.645   6.987
  839PAPC   GL210265  24.675  33.923   6.885
  839PAPC   C1A10266  24.679  33.477   6.698
  839PAPC   D2A10267  24.611  33.265   6.354
  839PAPC   D3A10268  24.508  33.416   5.968
  839PAPC   D4A10269  24.255  33.047   5.924
  839PAPC   C5A10270  24.658  32.880   6.033
  839PAPC   C1B10271  24.604  33.901   6.474
  839PAPC   C2B10272  24.401  33.912   6.164
  839PAPC   C3B10273  24.213  34.078   5.741
  839PAPC   C4B10274  23.902  34.275   5.411
  840PAPC   NC310275  22.107  15.710   7.600
  840PAPC   PO410276  21.744  15.892   7.717
  840PAPC   GL110277  21.801  16.144   7.389
  840PAPC   GL210278  22.023  15.933   7.238
  840PAPC   C1A10279  21.757  16.420   7.200
  840PAPC   D2A10280  21.883  16.853   7.158
  840PAPC   D3A10281  21.778  17.278   7.053
  840PAPC   D4A10282  21.969  17.611   6.867
  840PAPC   C5A10283  21.738  18.062   6.725
  840PAPC   C1B10284  22.059  15.947   6.864
  840PAPC   C2B10285  22.058  15.951   6.442
  840PAPC   C3B10286  22.001  15.904   5.981
  840PAPC   C4B10287  21.760  16.078   5.631
  841PAPC   NC310288  35.809   4.368   7.604
  841PAPC   PO410289  35.808   3.981   7.583
  841PAPC   GL110290  35.735   3.556   7.196
  841PAPC   GL210291  35.794   3.922   7.154
  841PAPC   C1A10292  35.706   3.474   6.858
  841PAPC   D2A10293  35.451   3.210   7.054
  841PAPC   D3A10294  35.080   3.409   6.928
  841PAPC   D4A10295  35.074   3.416   6.526
  841PAPC   C5A10296  34.764   3.161   6.262
  841PAPC   C1B10297  35.833   4.008   6.785
  841PAPC   C2B10298  35.591   4.235   6.535
  841PAPC   C3B10299  35.374   4.016   6.150
  841PAPC   C4B10300  35.299   4.099   5.692
  842PAPC   NC310301   7.002  11.068   7.427
  842PAPC   PO410302   6.767  10.868   7.162
  842PAPC   GL110303   6.485  10.841   6.880
  842PAPC   GL210304   6.467  10.575   6.915
  842PAPC   C1A10305   6.151  10.895   6.741
  842PAPC   D2A10306   6.260  11.232   6.585
  842PAPC   D3A10307   6.461  11.303   6.204
  842PAPC   D4A10308   6.210  11.318   5.787
  842PAPC   C5A10309   5.814  11.576   5.763
  842PAPC   C1B10310   6.500  10.309   6.656
  842PAPC   C2B10311   6.474  10.189   6.229
  842PAPC   C3B10312   6.307   9.981   5.868
  842PAPC   C4B10313   5.991   9.595   5.667
  843PAPC   NC310314  33.236  20.815   7.643
  843PAPC   PO410315  33.095  21.151   7.491
  843PAPC   GL110316  32.903  21.209   7.115
  843PAPC   GL210317  32.854  21.446   7.173
  843PAPC   C1A10318  32.840  21.052   6.797
  843PAPC   D2A10319  32.863  21.158   6.382
  843PAPC   D3A10320  32.572  21.326   6.135
  843PAPC   D4A10321  32.455  20.995   5.927
  843PAPC   C5A10322  32.946  20.867   5.931
  843PAPC   C1B10323  32.819  21.535   6.810
  843PAPC   C2B10324  32.826  21.676   6.446
  843PAPC   C3B10325  32.822  21.800   5.992
  843PAPC   C4B10326  32.858  21.786   5.517
  844PAPC   NC310327  34.192  14.625   7.845
  844PAPC   PO410328  34.343  14.907   8.092
  844PAPC   GL110329  34.754  15.001   7.870
  844PAPC   GL210330  34.590  14.965   7.636
  844PAPC   C1A10331  34.965  15.271   7.643
  844PAPC   D2A10332  35.111  15.436   7.290
  844PAPC   D3A10333  35.493  15.655   7.118
  844PAPC   D4A10334  35.833  15.943   6.951
  844PAPC   C5A10335  35.986  16.013   6.553
  844PAPC   C1B10336  34.625  15.088   7.290
  844PAPC   C2B10337  34.760  15.112   6.893
  844PAPC   C3B10338  35.034  15.381   6.575
  844PAPC   C4B10339  35.088  15.757   6.324
  845PAPC   NC310340  12.548   8.969   7.809
  845PAPC   PO410341  12.679   8.963   7.416
  845PAPC   GL110342  12.870   8.875   6.961
  845PAPC   GL210343  13.119   8.795   7.122
  845PAPC   C1A10344  12.674   8.851   6.633
  845PAPC   D2A10345  12.391   8.911   6.326
  845PAPC   D3A10346  12.198   9.036   5.941
  845PAPC   D4A10347  12.239   8.782   5.528
  845PAPC   C5A10348  12.389   9.213   5.536
  845PAPC   C1B10349  13.294   8.513   7.036
  845PAPC   C2B10350  13.355   8.356   6.631
  845PAPC   C3B10351  13.464   7.864   6.528
  845PAPC   C4B10352  13.510   7.492   6.140
  846PAPC   NC310353  10.676  12.208   7.283
  846PAPC   PO410354  10.780  11.837   7.222
  846PAPC   GL110355  10.819  11.741   6.811
  846PAPC   GL210356  10.959  11.509   6.834
  846PAPC   C1A10357  10.656  11.967   6.545
  846PAPC   D2A10358  10.779  12.298   6.338
  846PAPC   D3A10359  10.823  12.458   5.938
  846PAPC   D4A10360  10.624  12.668   5.536
  846PAPC   C5A10361  10.166  12.731   5.402
  846PAPC   C1B10362  10.959  11.250   6.562
  846PAPC   C2B10363  11.182  11.029   6.327
  846PAPC   C3B10364  11.320  10.658   6.042
  846PAPC   C4B10365  11.260  10.602   5.547
  847PAPC   NC310366  20.513  15.071   7.222
  847PAPC   PO410367  20.622  15.479   7.263
  847PAPC   GL110368  20.680  15.749   6.954
  847PAPC   GL210369  20.430  15.616   6.707
  847PAPC   C1A10370  21.009  15.895   6.826
  847PAPC   D2A10371  21.198  16.126   6.499
  847PAPC   D3A10372  21.052  16.132   6.019
  847PAPC   D4A10373  21.062  16.289   5.635
  847PAPC   C5A10374  21.493  16.426   5.842
  847PAPC   C1B10375  20.202  15.679   6.409
  847PAPC   C2B10376  20.180  15.623   5.993
  847PAPC   C3B10377  20.373  15.535   5.585
  847PAPC   C4B10378  20.466  15.230   5.271
  848PAPC   NC310379  10.575   4.952   7.390
  848PAPC   PO410380  10.240   4.739   7.268
  848PAPC   GL110381  10.258   4.849   6.909
  848PAPC   GL210382   9.918   4.825   6.897
  848PAPC   C1A10383  10.516   4.907   6.614
  848PAPC   D2A10384  10.735   5.046   6.348
  848PAPC   D3A10385  11.071   4.777   6.459
  848PAPC   D4A10386  11.291   4.556   6.188
  848PAPC   C5A10387  11.208   4.299   5.801
  848PAPC   C1B10388   9.783   4.795   6.569
  848PAPC   C2B10389   9.758   4.724   6.119
  848PAPC   C3B10390   9.739   4.711   5.625
  848PAPC   C4B10391   9.668   4.652   5.131
  849PAPC   NC310392  17.071  19.466   7.806
  849PAPC   PO410393  16.740  19.620   7.677
  849PAPC   GL110394  16.788  19.902   7.334
  849PAPC   GL210395  17.086  19.956   7.454
  849PAPC   C1A10396  16.828  20.282   7.258
  849PAPC   D2A10397  16.688  20.571   7.037
  849PAPC   D3A10398  16.325  20.465   6.802
  849PAPC   D4A10399  16.016  20.803   6.605
  849PAPC   C5A10400  15.508  20.880   6.531
  849PAPC   C1B10401  17.194  20.085   7.116
  849PAPC   C2B10402  17.159  20.405   6.865
  849PAPC   C3B10403  17.046  20.661   6.503
  849PAPC   C4B10404  16.905  21.013   6.250
  850PAPC   NC310405   7.547  11.583   6.883
  850PAPC   PO410406   7.323  11.840   7.043
  850PAPC   GL110407   6.998  11.666   6.755
  850PAPC   GL210408   6.873  11.934   6.728
  850PAPC   C1A10409   7.017  11.607   6.420
  850PAPC   D2A10410   6.895  11.519   6.084
  850PAPC   D3A10411   6.620  11.820   5.908
  850PAPC   D4A10412   6.564  12.146   5.592
  850PAPC   C5A10413   6.273  12.078   5.225
  850PAPC   C1B10414   6.913  12.072   6.422
  850PAPC   C2B10415   6.937  12.286   6.085
  850PAPC   C3B10416   6.763  12.596   5.693
  850PAPC   C4B10417   6.666  12.962   5.406
  851PAPC   NC310418  10.882  35.191   7.427
  851PAPC   PO410419  10.613  35.391   7.199
  851PAPC   GL110420  10.585  35.655   6.866
  851PAPC   GL210421  10.910  35.618   6.857
  851PAPC   C1A10422  10.484  35.580   6.496
  851PAPC   D2A10423  10.457  35.520   6.109
  851PAPC   D3A10424  10.526  35.394   5.773
  851PAPC   D4A10425  10.724  35.034   5.676
  851PAPC   C5A10426  10.635  34.632   5.404
  851PAPC   C1B10427  10.871  35.379   6.579
  851PAPC   C2B10428  10.838  35.188   6.169
  851PAPC   C3B10429  10.852  34.729   6.013
  851PAPC   C4B10430  10.932  34.254   5.994
  852PAPC   NC310431  11.505  34.636   7.543
  852PAPC   PO410432  11.811  34.411   7.645
  852PAPC   GL110433  11.792  34.050   7.243
  852PAPC   GL210434  11.778  34.373   7.173
  852PAPC   C1A10435  11.943  33.818   6.971
  852PAPC   D2A10436  12.209  33.612   6.729
  852PAPC   D3A10437  12.163  33.761   6.319
  852PAPC   D4A10438  12.305  33.690   5.898
  852PAPC   C5A10439  12.014  33.436   5.627
  852PAPC   C1B10440  11.843  34.465   6.786
  852PAPC   C2B10441  11.933  34.360   6.393
  852PAPC   C3B10442  12.068  34.194   5.923
  852PAPC   C4B10443  11.887  34.019   5.468
  853PAPC   NC310444  22.145  30.413   6.964
  853PAPC   PO410445  22.084  29.997   7.095
  853PAPC   GL110446  22.191  29.647   6.812
  853PAPC   GL210447  22.486  29.670   6.875
  853PAPC   C1A10448  22.025  29.287   6.718
  853PAPC   D2A10449  21.799  29.178   6.439
  853PAPC   D3A10450  21.880  28.743   6.355
  853PAPC   D4A10451  22.170  28.504   6.144
  853PAPC   C5A10452  22.181  28.600   5.698
  853PAPC   C1B10453  22.799  29.781   6.675
  853PAPC   C2B10454  22.915  29.892   6.269
  853PAPC   C3B10455  22.718  29.926   5.837
  853PAPC   C4B10456  22.601  30.040   5.373
  854PAPC   NC310457  30.804  35.752   7.458
  854PAPC   PO410458  31.199  35.789   7.336
  854PAPC   GL110459  31.000  35.789   6.918
  854PAPC   GL210460  31.225  35.978   6.940
  854PAPC   C1A10461  30.691  35.815   6.697
  854PAPC   D2A10462  30.701  35.644   6.325
  854PAPC   D3A10463  30.715  35.169   6.220
  854PAPC   D4A10464  30.670  34.831   5.932
  854PAPC   C5A10465  30.506  35.022   5.504
  854PAPC   C1B10466  31.366  35.962   6.592
  854PAPC   C2B10467  31.205  35.894   6.235
  854PAPC   C3B10468  30.975  35.887   5.806
  854PAPC   C4B10469  31.134  35.603   5.477
  855PAPC   NC310470  29.818  35.689   7.424
  855PAPC   PO410471  29.924  35.307   7.364
  855PAPC   GL110472  30.141  35.319   7.042
  855PAPC   GL210473  30.024  35.631   6.998
  855PAPC   C1A10474  30.117  35.100   6.803
  855PAPC   D2A10475  30.301  34.961   6.484
  855PAPC   D3A10476  30.119  34.854   6.092
  855PAPC   D4A10477  29.946  35.154   5.817
  855PAPC   C5A10478  30.102  35.282   5.403
  855PAPC   C1B10479  30.031  35.723   6.621
  855PAPC   C2B10480  29.983  35.964   6.285
  855PAPC   C3B10481  29.961  36.083   5.808
  855PAPC   C4B10482  29.918  36.309   5.354
  856PAPC   NC310483   9.790  14.024   7.632
  856PAPC   PO410484   9.484  14.263   7.694
  856PAPC   GL110485   9.390  14.295   7.310
  856PAPC   GL210486   9.640  14.284   7.186
  856PAPC   C1A10487   9.164  14.496   7.055
  856PAPC   D2A10488   8.774  14.616   7.019
  856PAPC   D3A10489   8.580  14.700   6.644
  856PAPC   D4A10490   8.596  15.133   6.487
  856PAPC   C5A10491   8.719  15.423   6.191
  856PAPC   C1B10492   9.561  14.284   6.832
  856PAPC   C2B10493   9.422  14.287   6.421
  856PAPC   C3B10494   9.421  14.381   5.933
  856PAPC   C4B10495   9.429  14.485   5.441
  857PAPC   NC310496  29.195  31.102   7.090
  857PAPC   PO410497  28.920  31.371   7.003
  857PAPC   GL110498  29.184  31.583   6.701
  857PAPC   GL210499  28.904  31.592   6.530
  857PAPC   C1A10500  29.270  31.560   6.344
  857PAPC   D2A10501  29.132  31.481   5.999
  857PAPC   D3A10502  29.117  31.563   5.562
  857PAPC   D4A10503  29.214  31.908   5.387
  857PAPC   C5A10504  29.496  31.694   5.038
  857PAPC   C1B10505  28.643  31.585   6.244
  857PAPC   C2B10506  28.544  31.581   5.781
  857PAPC   C3B10507  28.417  31.490   5.260
  857PAPC   C4B10508  28.104  31.550   4.860
  858PAPC   NC310509   8.244  30.981   7.537
  858PAPC   PO410510   8.044  30.836   7.245
  858PAPC   GL110511   8.039  30.943   6.846
  858PAPC   GL210512   8.234  30.665   6.850
  858PAPC   C1A10513   8.252  31.075   6.561
  858PAPC   D2A10514   8.095  31.259   6.260
  858PAPC   D3A10515   7.900  30.911   5.997
  858PAPC   D4A10516   8.073  30.842   5.651
  858PAPC   C5A10517   8.468  30.602   5.662
  858PAPC   C1B10518   8.370  30.638   6.517
  858PAPC   C2B10519   8.457  30.863   6.129
  858PAPC   C3B10520   8.837  30.936   5.815
  858PAPC   C4B10521   9.064  31.035   5.400
  859PAPC   NC310522   9.261  35.493   7.479
  859PAPC   PO410523   9.066  35.337   7.128
  859PAPC   GL110524   9.209  35.257   6.705
  859PAPC   GL210525   9.354  35.457   6.665
  859PAPC   C1A10526   9.188  35.050   6.407
  859PAPC   D2A10527   8.886  34.876   6.200
  859PAPC   D3A10528   8.479  34.912   6.308
  859PAPC   D4A10529   8.280  34.849   6.008
  859PAPC   C5A10530   8.134  34.654   5.644
  859PAPC   C1B10531   9.584  35.261   6.469
  859PAPC   C2B10532   9.657  34.984   6.140
  859PAPC   C3B10533   9.730  34.718   5.745
  859PAPC   C4B10534   9.603  34.597   5.322
  860PAPC   NC310535   0.557  21.316   8.230
  860PAPC   PO410536   0.708  21.622   8.081
  860PAPC   GL110537   0.628  21.639   7.693
  860PAPC   GL210538   0.906  21.520   7.570
  860PAPC   C1A10539   0.270  21.458   7.613
  860PAPC   D2A10540  -0.042  21.269   7.407
  860PAPC   D3A10541   0.110  20.942   7.134
  860PAPC   D4A10542   0.483  20.970   6.912
  860PAPC   C5A10543   0.483  21.234   7.300
  860PAPC   C1B10544   0.931  21.558   7.176
  860PAPC   C2B10545   1.116  21.708   6.808
  860PAPC   C3B10546   1.069  21.844   6.316
  860PAPC   C4B10547   1.170  21.908   5.872
  861PAPC   NC310548  11.765  15.018   7.424
  861PAPC   PO410549  11.406  15.073   7.290
  861PAPC   GL110550  11.449  14.857   6.920
  861PAPC   GL210551  11.782  15.005   6.893
  861PAPC   C1A10552  11.283  14.544   6.696
  861PAPC   D2A10553  11.398  14.614   6.320
  861PAPC   D3A10554  11.292  14.461   5.837
  861PAPC   D4A10555  11.327  14.251   5.455
  861PAPC   C5A10556  11.374  13.921   5.194
  861PAPC   C1B10557  11.766  15.251   6.535
  861PAPC   C2B10558  11.885  15.372   6.161
  861PAPC   C3B10559  12.016  15.263   5.671
  861PAPC   C4B10560  11.827  15.265   5.201
  862PAPC   NC310561   9.706  27.020   6.928
  862PAPC   PO410562   9.839  27.382   6.918
  862PAPC   GL110563  10.055  27.703   6.724
  862PAPC   GL210564   9.807  27.844   6.676
  862PAPC   C1A10565  10.303  27.628   6.442
  862PAPC   D2A10566  10.646  27.426   6.340
  862PAPC   D3A10567  10.750  27.332   5.932
  862PAPC   D4A10568  10.856  27.117   5.514
  862PAPC   C5A10569  10.732  26.974   5.068
  862PAPC   C1B10570   9.811  27.677   6.332
  862PAPC   C2B10571   9.822  27.727   5.961
  862PAPC   C3B10572   9.781  27.581   5.498
  862PAPC   C4B10573   9.830  27.302   5.076
  863PAPC   NC310574   4.767  24.623   7.902
  863PAPC   PO410575   4.751  24.218   7.750
  863PAPC   GL110576   4.622  24.206   7.353
  863PAPC   GL210577   4.876  24.274   7.161
  863PAPC   C1A10578   4.318  24.072   7.101
  863PAPC   D2A10579   3.914  23.992   6.975
  863PAPC   D3A10580   3.678  23.835   6.638
  863PAPC   D4A10581   3.904  23.775   6.185
  863PAPC   C5A10582   3.879  23.713   5.704
  863PAPC   C1B10583   4.621  24.318   6.915
  863PAPC   C2B10584   4.494  24.449   6.537
  863PAPC   C3B10585   4.632  24.654   6.132
  863PAPC   C4B10586   4.989  24.736   5.868
  864PAPC   NC310587  20.597  28.401   7.463
  864PAPC   PO410588  20.778  28.655   7.220
  864PAPC   GL110589  20.838  28.724   6.805
  864PAPC   GL210590  20.945  28.487   6.689
  864PAPC   C1A10591  20.942  29.062   6.813
  864PAPC   D2A10592  20.945  29.448   6.858
  864PAPC   D3A10593  20.685  29.567   6.598
  864PAPC   D4A10594  20.478  29.252   6.356
  864PAPC   C5A10595  20.504  29.325   5.939
  864PAPC   C1B10596  20.601  28.402   6.521
  864PAPC   C2B10597  20.268  28.244   6.459
  864PAPC   C3B10598  19.833  28.219   6.466
  864PAPC   C4B10599  19.493  28.101   6.120
  865PAPC   NC310600   4.260  35.003   7.827
  865PAPC   PO410601   4.244  35.296   7.569
  865PAPC   GL110602   3.944  35.114   7.274
  865PAPC   GL210603   3.998  34.880   7.478
  865PAPC   C1A10604   3.920  35.095   6.895
  865PAPC   D2A10605   3.733  34.932   6.585
  865PAPC   D3A10606   3.877  34.914   6.233
  865PAPC   D4A10607   3.780  34.679   5.820
  865PAPC   C5A10608   3.907  34.517   5.416
  865PAPC   C1B10609   4.236  34.702   7.364
  865PAPC   C2B10610   4.399  34.662   7.010
  865PAPC   C3B10611   4.678  34.446   6.679
  865PAPC   C4B10612   4.739  34.055   6.455
  866PAPC   NC310613  18.042  25.589   7.813
  866PAPC   PO410614  17.781  25.864   7.675
  866PAPC   GL110615  17.712  25.616   7.302
  866PAPC   GL210616  17.413  25.760   7.241
  866PAPC   C1A10617  17.723  25.709   6.941
  866PAPC   D2A10618  17.556  25.788   6.594
  866PAPC   D3A10619  17.605  25.916   6.165
  866PAPC   D4A10620  18.006  25.810   6.147
  866PAPC   C5A10621  18.440  25.636   6.248
  866PAPC   C1B10622  17.300  25.730   6.936
  866PAPC   C2B10623  17.057  25.724   6.658
  866PAPC   C3B10624  17.115  25.777   6.119
  866PAPC   C4B10625  17.047  25.910   5.625
  867PAPC   NC310626  11.373   8.327   7.343
  867PAPC   PO410627  11.648   8.033   7.333
  867PAPC   GL110628  11.772   8.034   7.011
  867PAPC   GL210629  11.776   8.388   7.040
  867PAPC   C1A10630  11.737   8.095   6.684
  867PAPC   D2A10631  11.759   8.100   6.303
  867PAPC   D3A10632  11.961   8.260   5.928
  867PAPC   D4A10633  12.153   8.320   5.581
  867PAPC   C5A10634  12.413   8.151   5.168
  867PAPC   C1B10635  12.075   8.354   6.844
  867PAPC   C2B10636  12.244   8.451   6.496
  867PAPC   C3B10637  12.406   8.389   6.022
  867PAPC   C4B10638  12.639   8.373   5.569
  868PAPC   NC310639  35.194   0.859   7.092
  868PAPC   PO410640  34.874   0.796   6.902
  868PAPC   GL110641  34.977   0.890   6.572
  868PAPC   GL210642  34.653   0.972   6.475
  868PAPC   C1A10643  35.169   0.806   6.231
  868PAPC   D2A10644  35.412   0.481   6.090
  868PAPC   D3A10645  35.743   0.688   5.996
  868PAPC   D4A10646  35.592   0.882   5.605
  868PAPC   C5A10647  35.716   1.259   5.307
  868PAPC   C1B10648  34.568   0.899   6.125
  868PAPC   C2B10649  34.583   0.855   5.748
  868PAPC   C3B10650  34.819   0.703   5.363
  868PAPC   C4B10651  35.271   0.594   5.142
  869PAPC   NC310652  19.739  30.181   7.290
  869PAPC   PO410653  19.942  29.879   7.492
  869PAPC   GL110654  20.272  29.690   7.408
  869PAPC   GL210655  20.385  29.980   7.400
  869PAPC   C1A10656  20.434  29.544   7.146
  869PAPC   D2A10657  20.409  29.251   6.893
  869PAPC   D3A10658  20.453  28.905   6.714
  869PAPC   D4A10659  20.284  28.720   6.309
  869PAPC   C5A10660  20.377  28.695   5.836
  869PAPC   C1B10661  20.394  30.009   7.008
  869PAPC   C2B10662  20.488  30.172   6.579
  869PAPC   C3B10663  20.568  30.212   6.082
  869PAPC   C4B10664  20.844  30.529   5.773
  870PAPC   NC310665  23.130  12.638   7.239
  870PAPC   PO410666  23.424  12.388   7.369
  870PAPC   GL110667  23.502  12.444   6.958
  870PAPC   GL210668  23.276  12.234   6.980
  870PAPC   C1A10669  23.841  12.356   6.959
  870PAPC   D2A10670  24.150  12.321   6.752
  870PAPC   D3A10671  24.590  12.276   6.753
  870PAPC   D4A10672  24.926  12.483   6.888
  870PAPC   C5A10673  25.023  12.389   6.376
  870PAPC   C1B10674  23.157  12.079   6.654
  870PAPC   C2B10675  23.201  12.070   6.259
  870PAPC   C3B10676  23.443  12.087   5.835
  870PAPC   C4B10677  23.327  12.200   5.339
  871PAPC   NC310678  10.976  31.256   7.221
  871PAPC   PO410679  10.786  31.555   7.396
  871PAPC   GL110680  10.737  31.845   7.216
  871PAPC   GL210681  10.500  31.976   7.134
  871PAPC   C1A10682  10.985  31.697   6.950
  871PAPC   D2A10683  11.221  31.456   6.680
  871PAPC   D3A10684  11.115  31.414   6.243
  871PAPC   D4A10685  10.947  31.524   5.843
  871PAPC   C5A10686  11.000  31.497   5.380
  871PAPC   C1B10687  10.532  32.074   6.782
  871PAPC   C2B10688  10.611  32.040   6.361
  871PAPC   C3B10689  10.672  31.957   5.925
  871PAPC   C4B10690  11.008  31.922   5.572
  872PAPC   NC310691  11.179  32.340   7.448
  872PAPC   PO410692  11.425  32.100   7.717
  872PAPC   GL110693  11.584  31.678   7.424
  872PAPC   GL210694  11.786  31.844   7.457
  872PAPC   C1A10695  11.470  31.693   7.087
  872PAPC   D2A10696  11.593  31.986   6.835
  872PAPC   D3A10697  11.654  32.251   7.260
  872PAPC   D4A10698  11.547  32.708   7.283
  872PAPC   C5A10699  11.785  32.839   6.989
  872PAPC   C1B10700  11.929  31.910   7.167
  872PAPC   C2B10701  12.098  32.111   6.802
  872PAPC   C3B10702  12.344  32.282   6.363
  872PAPC   C4B10703  12.727  32.377   6.050
  873PAPC   NC310704   0.083  30.798   7.686
  873PAPC   PO410705  -0.172  31.058   7.636
  873PAPC   GL110706  -0.243  31.250   7.256
  873PAPC   GL210707  -0.526  31.129   7.269
  873PAPC   C1A10708   0.081  31.278   7.088
  873PAPC   D2A10709   0.363  31.234   6.813
  873PAPC   D3A10710   0.357  31.250   6.372
  873PAPC   D4A10711  -0.042  31.360   6.460
  873PAPC   C5A10712  -0.366  31.413   6.861
  873PAPC   C1B10713  -0.742  31.322   7.100
  873PAPC   C2B10714  -0.870  31.329   6.721
  873PAPC   C3B10715  -1.070  31.360   6.259
  873PAPC   C4B10716  -1.018  31.420   5.778
  874PAPC   NC310717  17.447  14.402   7.565
  874PAPC   PO410718  17.290  14.281   7.199
  874PAPC   GL110719  17.369  14.475   6.756
  874PAPC   GL210720  17.277  14.237   6.695
  874PAPC   C1A10721  17.696  14.606   6.670
  874PAPC   D2A10722  17.931  14.618   6.325
  874PAPC   D3A10723  17.972  14.735   5.818
  874PAPC   D4A10724  18.094  15.109   5.764
  874PAPC   C5A10725  17.978  15.501   5.968
  874PAPC   C1B10726  17.131  14.275   6.392
  874PAPC   C2B10727  17.014  14.280   6.014
  874PAPC   C3B10728  16.953  14.216   5.536
  874PAPC   C4B10729  16.930  13.977   5.154
  875PAPC   NC310730  26.909   6.502   7.911
  875PAPC   PO410731  26.971   6.656   7.530
  875PAPC   GL110732  26.671   6.691   7.234
  875PAPC   GL210733  26.833   6.859   7.136
  875PAPC   C1A10734  26.385   6.585   6.963
  875PAPC   D2A10735  25.988   6.475   6.853
  875PAPC   D3A10736  25.764   6.581   6.539
  875PAPC   D4A10737  25.705   6.556   6.080
  875PAPC   C5A10738  25.600   6.979   6.054
  875PAPC   C1B10739  26.804   6.808   6.820
  875PAPC   C2B10740  26.663   6.908   6.465
  875PAPC   C3B10741  26.676   6.839   6.005
  875PAPC   C4B10742  26.789   6.841   5.484
  876PAPC   NC310743  35.242  17.089   7.709
  876PAPC   PO410744  35.420  17.419   7.633
  876PAPC   GL110745  35.300  17.494   7.256
  876PAPC   GL210746  35.043  17.307   7.357
  876PAPC   C1A10747  35.249  17.895   7.105
  876PAPC   D2A10748  35.101  18.215   6.871
  876PAPC   D3A10749  35.059  18.168   6.517
  876PAPC   D4A10750  34.687  18.358   6.310
  876PAPC   C5A10751  34.779  17.861   6.295
  876PAPC   C1B10752  34.792  17.257   7.049
  876PAPC   C2B10753  34.541  17.322   6.658
  876PAPC   C3B10754  34.471  17.519   6.221
  876PAPC   C4B10755  34.306  18.038   6.301
  877PAPC   NC310756  14.969   1.639   7.796
  877PAPC   PO410757  15.200   1.814   7.546
  877PAPC   GL110758  15.178   1.713   7.201
  877PAPC   GL210759  15.042   1.969   7.059
  877PAPC   C1A10760  15.221   1.583   6.913
  877PAPC   D2A10761  15.343   1.639   6.552
  877PAPC   D3A10762  15.263   1.627   6.085
  877PAPC   D4A10763  15.263   1.383   5.620
  877PAPC   C5A10764  14.857   1.605   5.626
  877PAPC   C1B10765  14.977   1.863   6.715
  877PAPC   C2B10766  14.939   2.028   6.368
  877PAPC   C3B10767  14.909   1.975   5.959
  877PAPC   C4B10768  14.948   2.082   5.463
  878PAPC   NC310769   2.982   9.521   7.702
  878PAPC   PO410770   3.238   9.847   7.674
  878PAPC   GL110771   3.233  10.027   7.350
  878PAPC   GL210772   3.446   9.866   7.149
  878PAPC   C1A10773   2.972  10.244   7.308
  878PAPC   D2A10774   2.631  10.332   7.167
  878PAPC   D3A10775   2.445  10.681   6.995
  878PAPC   D4A10776   2.364  10.906   6.633
  878PAPC   C5A10777   2.798  11.024   6.504
  878PAPC   C1B10778   3.170  10.011   6.968
  878PAPC   C2B10779   2.832  10.075   6.725
  878PAPC   C3B10780   2.470  10.317   6.415
  878PAPC   C4B10781   2.276  10.381   5.960
  879PAPC   NC310782   7.470  35.765   7.305
  879PAPC   PO410783   7.852  35.776   7.121
  879PAPC   GL110784   7.921  35.874   6.728
  879PAPC   GL210785   7.985  36.099   6.802
  879PAPC   C1A10786   8.228  35.733   6.586
  879PAPC   D2A10787   8.376  35.527   6.245
  879PAPC   D3A10788   8.175  35.543   5.871
  879PAPC   D4A10789   7.901  35.480   5.524
  879PAPC   C5A10790   7.631  35.805   5.197
  879PAPC   C1B10791   7.932  36.356   6.514
  879PAPC   C2B10792   7.813  36.441   6.159
  879PAPC   C3B10793   7.622  36.601   5.773
  879PAPC   C4B10794   7.330  36.889   5.418
  880PAPC   NC310795  13.832  19.372   8.210
  880PAPC   PO410796  14.043  19.225   7.854
  880PAPC   GL110797  13.926  19.222   7.362
  880PAPC   GL210798  14.175  18.997   7.271
  880PAPC   C1A10799  13.730  19.340   7.100
  880PAPC   D2A10800  13.430  19.631   6.968
  880PAPC   D3A10801  13.105  19.829   6.700
  880PAPC   D4A10802  13.341  19.731   6.376
  880PAPC   C5A10803  13.408  19.886   5.899
  880PAPC   C1B10804  14.277  19.022   6.925
  880PAPC   C2B10805  14.373  18.948   6.501
  880PAPC   C3B10806  14.343  19.091   5.999
  880PAPC   C4B10807  14.410  19.071   5.509
  881PAPC   NC310808  24.424  35.795   7.304
  881PAPC   PO410809  24.724  36.081   7.259
  881PAPC   GL110810  25.075  36.054   6.937
  881PAPC   GL210811  24.975  35.888   6.850
  881PAPC   C1A10812  24.999  36.352   6.749
  881PAPC   D2A10813  25.260  36.674   6.740
  881PAPC   D3A10814  25.514  37.030   6.827
  881PAPC   D4A10815  25.806  37.209   6.591
  881PAPC   C5A10816  25.917  37.263   6.106
  881PAPC   C1B10817  24.859  35.769   6.518
  881PAPC   C2B10818  24.625  35.705   6.176
  881PAPC   C3B10819  24.389  35.926   5.814
  881PAPC   C4B10820  24.248  35.853   5.374
  882PAPC   NC310821   7.922  26.447   7.640
  882PAPC   PO410822   8.012  26.108   7.408
  882PAPC   GL110823   7.885  26.185   7.052
  882PAPC   GL210824   7.877  25.953   6.938
  882PAPC   C1A10825   7.980  26.383   6.735
  882PAPC   D2A10826   8.026  26.280   6.347
  882PAPC   D3A10827   8.291  26.289   5.969
  882PAPC   D4A10828   8.201  26.335   5.486
  882PAPC   C5A10829   7.967  26.144   5.141
  882PAPC   C1B10830   7.754  25.895   6.607
  882PAPC   C2B10831   7.687  25.710   6.239
  882PAPC   C3B10832   7.423  25.733   5.879
  882PAPC   C4B10833   7.162  25.575   5.470
  883PAPC   NC310834   0.933  25.654   7.820
  883PAPC   PO410835   0.621  25.606   7.610
  883PAPC   GL110836   0.460  25.826   7.280
  883PAPC   GL210837   0.297  25.595   7.244
  883PAPC   C1A10838   0.505  25.914   6.974
  883PAPC   D2A10839   0.477  25.913   6.604
  883PAPC   D3A10840   0.643  25.928   6.193
  883PAPC   D4A10841   1.109  25.875   6.254
  883PAPC   C5A10842   1.475  25.565   6.216
  883PAPC   C1B10843   0.370  25.512   6.916
  883PAPC   C2B10844   0.342  25.340   6.567
  883PAPC   C3B10845   0.429  25.387   6.166
  883PAPC   C4B10846   0.579  25.462   5.727
  884PAPC   NC310847  35.678  34.927   7.549
  884PAPC   PO410848  35.363  34.941   7.293
  884PAPC   GL110849  35.368  34.797   6.844
  884PAPC   GL210850  35.333  35.162   6.857
  884PAPC   C1A10851  35.363  34.557   6.553
  884PAPC   D2A10852  35.531  34.200   6.709
  884PAPC   D3A10853  35.304  33.935   6.410
  884PAPC   D4A10854  35.511  34.093   6.009
  884PAPC   C5A10855  35.601  34.249   5.604
  884PAPC   C1B10856  35.325  35.323   6.536
  884PAPC   C2B10857  35.494  35.397   6.176
  884PAPC   C3B10858  35.518  35.384   5.690
  884PAPC   C4B10859  35.594  35.540   5.256
  885PAPC   NC310860  21.699  22.378   7.527
  885PAPC   PO410861  21.363  22.527   7.598
  885PAPC   GL110862  21.012  22.676   7.436
  885PAPC   GL210863  20.868  22.367   7.431
  885PAPC   C1A10864  21.151  22.692   7.097
  885PAPC   D2A10865  21.396  22.949   6.870
  885PAPC   D3A10866  21.495  22.735   6.514
  885PAPC   D4A10867  21.648  22.758   6.088
  885PAPC   C5A10868  21.702  22.555   5.730
  885PAPC   C1B10869  20.980  22.115   7.194
  885PAPC   C2B10870  20.873  21.727   7.018
  885PAPC   C3B10871  21.000  21.313   6.839
  885PAPC   C4B10872  21.193  20.926   6.695
  886PAPC   NC310873   3.894   1.006   7.964
  886PAPC   PO410874   4.222   1.155   7.812
  886PAPC   GL110875   4.069   1.371   7.459
  886PAPC   GL210876   4.372   1.385   7.340
  886PAPC   C1A10877   3.876   1.231   7.180
  886PAPC   D2A10878   4.093   0.984   6.944
  886PAPC   D3A10879   4.175   1.181   6.568
  886PAPC   D4A10880   4.159   0.708   6.384
  886PAPC   C5A10881   4.077   1.051   6.028
  886PAPC   C1B10882   4.454   1.272   7.007
  886PAPC   C2B10883   4.720   1.367   6.676
  886PAPC   C3B10884   4.967   1.336   6.301
  886PAPC   C4B10885   5.319   1.316   5.944
  887PAPC   NC310886  33.692   9.104   6.843
  887PAPC   PO410887  33.348   9.327   6.925
  887PAPC   GL110888  33.222   9.171   6.545
  887PAPC   GL210889  33.427   9.047   6.476
  887PAPC   C1A10890  33.169   9.321   6.257
  887PAPC   D2A10891  33.026   9.403   5.925
  887PAPC   D3A10892  33.026   9.521   5.519
  887PAPC   D4A10893  33.373   9.766   5.347
  887PAPC   C5A10894  32.968   9.972   5.212
  887PAPC   C1B10895  33.421   8.944   6.133
  887PAPC   C2B10896  33.438   8.848   5.719
  887PAPC   C3B10897  33.490   8.589   5.245
  887PAPC   C4B10898  33.685   8.260   4.934
  888PAPC   NC310899   4.001  13.935   8.226
  888PAPC   PO410900   4.236  14.043   7.921
  888PAPC   GL110901   4.056  14.334   7.608
  888PAPC   GL210902   4.387  14.197   7.560
  888PAPC   C1A10903   3.755  14.192   7.429
  888PAPC   D2A10904   3.335  14.053   7.354
  888PAPC   D3A10905   3.380  13.671   7.552
  888PAPC   D4A10906   3.518  13.335   7.219
  888PAPC   C5A10907   3.384  12.960   7.499
  888PAPC   C1B10908   4.518  14.454   7.348
  888PAPC   C2B10909   4.591  14.589   6.981
  888PAPC   C3B10910   4.556  14.617   6.495
  888PAPC   C4B10911   4.669  14.936   6.177
  889PAPC   NC310912   0.871   9.263   8.166
  889PAPC   PO410913   1.132   9.513   7.952
  889PAPC   GL110914   1.122   9.329   7.615
  889PAPC   GL210915   1.462   9.236   7.529
  889PAPC   C1A10916   0.915   9.375   7.327
  889PAPC   D2A10917   0.709   9.395   7.035
  889PAPC   D3A10918   0.739   9.075   6.758
  889PAPC   D4A10919   0.595   8.711   7.048
  889PAPC   C5A10920   0.510   8.962   7.361
  889PAPC   C1B10921   1.681   9.300   7.186
  889PAPC   C2B10922   1.706   9.534   6.859
  889PAPC   C3B10923   1.626   9.531   6.392
  889PAPC   C4B10924   1.554   9.592   5.864
  890PAPC   NC310925   8.185   9.953   7.745
  890PAPC   PO410926   8.217  10.222   7.485
  890PAPC   GL110927   8.346  10.440   7.078
  890PAPC   GL210928   8.354  10.160   7.025
  890PAPC   C1A10929   8.344  10.684   6.850
  890PAPC   D2A10930   8.139  10.971   6.680
  890PAPC   D3A10931   8.021  11.035   6.244
  890PAPC   D4A10932   7.823  11.114   5.808
  890PAPC   C5A10933   7.553  10.779   5.673
  890PAPC   C1B10934   8.359  10.087   6.688
  890PAPC   C2B10935   8.412  10.061   6.250
  890PAPC   C3B10936   8.376  10.144   5.788
  890PAPC   C4B10937   8.355  10.164   5.287
  891PAPC   NC310938   2.652  16.114   7.577
  891PAPC   PO410939   2.316  16.312   7.681
  891PAPC   GL110940   2.253  16.596   7.342
  891PAPC   GL210941   1.991  16.447   7.261
  891PAPC   C1A10942   2.318  16.634   6.982
  891PAPC   D2A10943   2.284  16.545   6.599
  891PAPC   D3A10944   2.240  16.241   6.231
  891PAPC   D4A10945   2.605  16.222   5.952
  891PAPC   C5A10946   2.728  16.454   5.589
  891PAPC   C1B10947   2.020  16.341   6.938
  891PAPC   C2B10948   2.049  16.118   6.665
  891PAPC   C3B10949   1.931  15.859   6.322
  891PAPC   C4B10950   1.835  15.698   5.933
  892PAPC   NC310951  35.359  28.945   7.220
  892PAPC   PO410952  35.284  29.254   7.420
  892PAPC   GL110953  35.185  29.484   7.161
  892PAPC   GL210954  35.232  29.316   6.953
  892PAPC   C1A10955  35.249  29.851   6.997
  892PAPC   D2A10956  35.223  30.185   7.182
  892PAPC   D3A10957  35.131  30.582   7.144
  892PAPC   D4A10958  35.087  30.986   7.381
  892PAPC   C5A10959  34.941  31.475   7.291
  892PAPC   C1B10960  35.170  29.557   6.652
  892PAPC   C2B10961  35.196  29.816   6.315
  892PAPC   C3B10962  35.508  30.210   6.290
  892PAPC   C4B10963  35.550  30.661   6.147
  893PAPC   NC310964  27.112   8.998   7.721
  893PAPC   PO410965  26.835   8.701   7.758
  893PAPC   GL110966  26.692   8.747   7.403
  893PAPC   GL210967  26.703   9.056   7.448
  893PAPC   C1A10968  26.794   8.731   7.051
  893PAPC   D2A10969  26.673   8.513   6.712
  893PAPC   D3A10970  26.440   8.700   6.384
  893PAPC   D4A10971  26.114   8.653   6.149
  893PAPC   C5A10972  25.652   8.526   5.928
  893PAPC   C1B10973  26.675   9.133   7.106
  893PAPC   C2B10974  26.478   9.118   6.728
  893PAPC   C3B10975  26.177   9.118   6.268
  893PAPC   C4B10976  26.287   9.058   5.836
  894PAPC   NC310977  31.917   0.388   7.456
  894PAPC   PO410978  31.612   0.101   7.565
  894PAPC   GL110979  31.526   0.093   7.232
  894PAPC   GL210980  31.574   0.334   7.083
  894PAPC   C1A10981  31.659  -0.116   6.963
  894PAPC   D2A10982  31.941  -0.009   6.708
  894PAPC   D3A10983  32.327  -0.175   6.556
  894PAPC   D4A10984  32.384   0.099   6.222
  894PAPC   C5A10985  32.011  -0.034   5.918
  894PAPC   C1B10986  31.565   0.293   6.717
  894PAPC   C2B10987  31.660   0.197   6.325
  894PAPC   C3B10988  31.473   0.155   5.849
  894PAPC   C4B10989  31.167   0.165   5.481
  895PAPC   NC310990   5.019  15.830   7.544
  895PAPC   PO410991   5.281  16.085   7.680
  895PAPC   GL110992   5.304  16.298   7.227
  895PAPC   GL210993   4.991  16.178   7.105
  895PAPC   C1A10994   5.621  16.357   7.085
  895PAPC   D2A10995   5.814  16.617   6.836
  895PAPC   D3A10996   5.778  17.049   6.890
  895PAPC   D4A10997   5.352  17.223   6.854
  895PAPC   C5A10998   4.942  17.213   6.657
  895PAPC   C1B10999   5.177  16.227   6.772
  895PAPC   C2B11000   5.460  16.332   6.559
  895PAPC   C3B11001   5.810  16.434   6.273
  895PAPC   C4B11002   6.288  16.472   6.070
  896PAPC   NC311003  26.928  22.027   8.147
  896PAPC   PO411004  26.754  21.858   7.860
  896PAPC   GL111005  26.578  21.993   7.452
  896PAPC   GL211006  26.703  22.195   7.365
  896PAPC   C1A11007  26.519  21.760   7.205
  896PAPC   D2A11008  26.673  21.422   6.998
  896PAPC   D3A11009  26.625  20.997   6.940
  896PAPC   D4A11010  26.212  21.238   6.917
  896PAPC   C5A11011  26.424  21.412   6.510
  896PAPC   C1B11012  26.544  22.103   6.986
  896PAPC   C2B11013  26.541  21.913   6.663
  896PAPC   C3B11014  26.517  21.791   6.182
  896PAPC   C4B11015  26.338  21.685   5.707
  897PAPC   NC311016  35.895   6.669   7.651
  897PAPC   PO411017  35.523   6.573   7.524
  897PAPC   GL111018  35.287   6.374   7.126
  897PAPC   GL211019  35.492   6.125   7.205
  897PAPC   C1A11020  34.978   6.182   6.992
  897PAPC   D2A11021  34.765   6.331   6.652
  897PAPC   D3A11022  34.679   6.753   6.517
  897PAPC   D4A11023  34.746   6.737   6.079
  897PAPC   C5A11024  34.457   6.601   5.745
  897PAPC   C1B11025  35.597   6.191   6.851
  897PAPC   C2B11026  35.678   6.237   6.479
  897PAPC   C3B11027  35.520   6.329   6.000
  897PAPC   C4B11028  35.456   6.603   5.606
  898PAPC   NC311029  18.201  13.361   7.819
  898PAPC   PO411030  18.325  13.654   7.594
  898PAPC   GL111031  18.413  13.748   7.163
  898PAPC   GL211032  18.694  13.683   7.179
  898PAPC   C1A11033  18.539  13.931   6.847
  898PAPC   D2A11034  18.619  14.103   6.473
  898PAPC   D3A11035  18.587  13.871   6.048
  898PAPC   D4A11036  18.808  13.733   5.767
  898PAPC   C5A11037  18.799  14.081   5.411
  898PAPC   C1B11038  18.665  13.554   6.837
  898PAPC   C2B11039  18.573  13.458   6.461
  898PAPC   C3B11040  18.464  13.381   6.060
  898PAPC   C4B11041  18.527  13.260   5.588
  899PAPC   NC311042  29.841  18.323   7.450
  899PAPC   PO411043  30.080  18.105   7.164
  899PAPC   GL111044  30.293  18.114   6.790
  899PAPC   GL211045  30.436  17.893   6.810
  899PAPC   C1A11046  30.311  18.373   6.553
  899PAPC   D2A11047  30.307  18.231   6.138
  899PAPC   D3A11048  30.341  18.154   5.699
  899PAPC   D4A11049  30.052  18.412   5.470
  899PAPC   C5A11050  30.214  18.680   5.085
  899PAPC   C1B11051  30.530  17.899   6.461
  899PAPC   C2B11052  30.586  17.766   6.022
  899PAPC   C3B11053  30.790  17.837   5.593
  899PAPC   C4B11054  30.914  17.595   5.172
  900PAPC   NC311055  16.332  10.323   7.791
  900PAPC   PO411056  16.357   9.934   7.644
  900PAPC   GL111057  16.097   9.892   7.237
  900PAPC   GL211058  16.269   9.811   7.126
  900PAPC   C1A11059  15.842   9.663   6.973
  900PAPC   D2A11060  15.842   9.441   6.686
  900PAPC   D3A11061  15.612   9.539   6.283
  900PAPC   D4A11062  15.498   9.250   5.995
  900PAPC   C5A11063  15.771   9.161   5.627
  900PAPC   C1B11064  16.187   9.738   6.768
  900PAPC   C2B11065  16.109   9.664   6.346
  900PAPC   C3B11066  16.051   9.526   5.941
  900PAPC   C4B11067  15.754   9.738   5.535
  901PAPC   NC311068  23.602   6.290   7.390
  901PAPC   PO411069  23.750   5.951   7.580
  901PAPC   GL111070  23.539   5.668   7.306
  901PAPC   GL211071  23.408   5.902   7.271
  901PAPC   C1A11072  23.494   5.585   6.935
  901PAPC   D2A11073  23.524   5.833   6.643
  901PAPC   D3A11074  23.466   6.013   6.277
  901PAPC   D4A11075  23.424   6.196   5.878
  901PAPC   C5A11076  23.263   5.923   5.570
  901PAPC   C1B11077  23.253   5.974   6.936
  901PAPC   C2B11078  23.065   5.707   6.730
  901PAPC   C3B11079  22.791   5.727   6.387
  901PAPC   C4B11080  22.851   5.835   5.911
  902PAPC   NC311081   7.982  33.354   7.810
  902PAPC   PO411082   7.669  33.232   7.569
  902PAPC   GL111083   7.752  33.061   7.206
  902PAPC   GL211084   7.833  32.804   7.254
  902PAPC   C1A11085   7.619  33.194   6.917
  902PAPC   D2A11086   7.558  33.506   6.705
  902PAPC   D3A11087   7.583  33.430   6.263
  902PAPC   D4A11088   7.729  33.384   5.859
  902PAPC   C5A11089   8.179  33.306   5.841
  902PAPC   C1B11090   7.924  32.696   6.915
  902PAPC   C2B11091   8.007  32.578   6.510
  902PAPC   C3B11092   8.031  32.251   6.140
  902PAPC   C4B11093   8.099  32.183   5.669
  903PAPC   NC311094   3.201  12.236   7.891
  903PAPC   PO411095   3.596  12.242   7.794
  903PAPC   GL111096   3.919  12.251   7.465
  903PAPC   GL211097   3.683  12.224   7.319
  903PAPC   C1A11098   4.095  12.426   7.176
  903PAPC   D2A11099   4.320  12.590   6.899
  903PAPC   D3A11100   4.217  13.025   7.104
  903PAPC   D4A11101   3.874  13.288   6.902
  903PAPC   C5A11102   3.563  13.523   6.612
  903PAPC   C1B11103   3.671  12.223   6.965
  903PAPC   C2B11104   3.471  12.213   6.614
  903PAPC   C3B11105   3.418  12.379   6.185
  903PAPC   C4B11106   3.354  12.598   5.694
  904PAPC   NC311107   9.030  32.601   7.991
  904PAPC   PO411108   8.938  32.840   7.685
  904PAPC   GL111109   8.960  32.729   7.285
  904PAPC   GL211110   8.847  32.903   7.139
  904PAPC   C1A11111   9.018  32.435   7.082
  904PAPC   D2A11112   9.181  32.235   6.732
  904PAPC   D3A11113   9.045  32.059   6.326
  904PAPC   D4A11114   9.355  32.392   6.222
  904PAPC   C5A11115   9.386  32.320   5.712
  904PAPC   C1B11116   8.751  32.984   6.762
  904PAPC   C2B11117   8.437  32.958   6.511
  904PAPC   C3B11118   8.362  32.840   6.106
  904PAPC   C4B11119   8.099  32.681   5.716
  905PAPC   NC311120  25.611   0.092   7.893
  905PAPC   PO411121  25.972   0.067   7.757
  905PAPC   GL111122  26.132  -0.135   7.448
  905PAPC   GL211123  25.852  -0.277   7.378
  905PAPC   C1A11124  26.279  -0.127   7.109
  905PAPC   D2A11125  26.438   0.078   6.823
  905PAPC   D3A11126  26.443   0.247   6.396
  905PAPC   D4A11127  26.174   0.329   6.002
  905PAPC   C5A11128  26.056   0.234   5.562
  905PAPC   C1B11129  25.788  -0.565   7.286
  905PAPC   C2B11130  25.820  -0.835   6.902
  905PAPC   C3B11131  25.880  -0.931   6.455
  905PAPC   C4B11132  25.795  -0.988   5.985
  906PAPC   NC311133  25.005   5.225   7.260
  906PAPC   PO411134  25.251   5.361   6.963
  906PAPC   GL111135  25.379   5.505   6.585
  906PAPC   GL211136  25.203   5.308   6.422
  906PAPC   C1A11137  25.533   5.610   6.268
  906PAPC   D2A11138  25.665   5.554   5.888
  906PAPC   D3A11139  25.802   5.827   5.568
  906PAPC   D4A11140  25.686   6.024   5.160
  906PAPC   C5A11141  25.478   6.270   4.830
  906PAPC   C1B11142  25.158   5.422   6.072
  906PAPC   C2B11143  25.206   5.498   5.656
  906PAPC   C3B11144  25.441   5.499   5.247
  906PAPC   C4B11145  25.570   5.614   4.816
  907PAPC   NC311146   6.149  13.453   7.487
  907PAPC   PO411147   6.014  13.814   7.502
  907PAPC   GL111148   5.724  13.755   7.273
  907PAPC   GL211149   5.983  13.738   7.077
  907PAPC   C1A11150   5.531  14.054   7.107
  907PAPC   D2A11151   5.486  14.416   7.047
  907PAPC   D3A11152   5.934  14.416   7.054
  907PAPC   D4A11153   6.287  14.471   6.791
  907PAPC   C5A11154   6.176  14.594   6.308
  907PAPC   C1B11155   6.001  13.978   6.813
  907PAPC   C2B11156   6.112  14.078   6.395
  907PAPC   C3B11157   6.210  14.145   5.933
  907PAPC   C4B11158   6.378  14.319   5.495
  908PAPC   NC311159  12.122  19.185   7.118
  908PAPC   PO411160  11.781  19.342   7.072
  908PAPC   GL111161  11.801  19.389   6.615
  908PAPC   GL211162  12.082  19.506   6.611
  908PAPC   C1A11163  11.833  19.235   6.257
  908PAPC   D2A11164  12.077  19.371   5.991
  908PAPC   D3A11165  12.254  19.401   5.566
  908PAPC   D4A11166  12.453  19.153   5.330
  908PAPC   C5A11167  12.291  18.716   5.335
  908PAPC   C1B11168  12.212  19.658   6.342
  908PAPC   C2B11169  12.497  19.616   6.084
  908PAPC   C3B11170  12.614  19.181   5.833
  908PAPC   C4B11171  12.660  18.701   5.714
  909PAPC   NC311172  16.043  12.920   7.451
  909PAPC   PO411173  15.859  12.599   7.525
  909PAPC   GL111174  15.958  12.342   7.192
  909PAPC   GL211175  16.071  12.670   7.048
  909PAPC   C1A11176  15.907  12.220   6.914
  909PAPC   D2A11177  15.792  11.867   6.778
  909PAPC   D3A11178  15.526  11.512   6.572
  909PAPC   D4A11179  15.629  11.609   6.174
  909PAPC   C5A11180  15.338  11.493   5.854
  909PAPC   C1B11181  16.131  12.686   6.702
  909PAPC   C2B11182  16.159  12.608   6.262
  909PAPC   C3B11183  16.125  12.638   5.812
  909PAPC   C4B11184  15.989  12.915   5.375
  910PAPC   NC311185  32.031   2.947   7.162
  910PAPC   PO411186  31.801   3.106   7.460
  910PAPC   GL111187  31.546   3.387   7.290
  910PAPC   GL211188  31.767   3.302   7.039
  910PAPC   C1A11189  31.450   3.784   7.166
  910PAPC   D2A11190  31.270   3.833   6.842
  910PAPC   D3A11191  31.244   3.682   6.395
  910PAPC   D4A11192  31.135   3.526   6.025
  910PAPC   C5A11193  31.202   3.775   5.679
  910PAPC   C1B11194  31.854   3.050   6.738
  910PAPC   C2B11195  31.911   3.136   6.344
  910PAPC   C3B11196  31.891   3.239   5.896
  910PAPC   C4B11197  32.230   3.312   5.528
  911PAPC   NC311198  11.034  10.169   7.030
  911PAPC   PO411199  10.673  10.317   7.053
  911PAPC   GL111200  10.429  10.377   6.732
  911PAPC   GL211201  10.302  10.643   6.850
  911PAPC   C1A11202  10.304  10.357   6.374
  911PAPC   D2A11203  10.440  10.219   6.043
  911PAPC   D3A11204  10.558  10.157   5.565
  911PAPC   D4A11205  10.153  10.305   5.405
  911PAPC   C5A11206   9.791  10.061   5.356
  911PAPC   C1B11207  10.071  10.735   6.533
  911PAPC   C2B11208  10.121  10.853   6.129
  911PAPC   C3B11209  10.226  11.118   5.692
  911PAPC   C4B11210  10.438  11.268   5.325
  912PAPC   NC311211   4.953  35.768   7.594
  912PAPC   PO411212   4.698  35.526   7.379
  912PAPC   GL111213   4.585  35.417   7.018
  912PAPC   GL211214   4.500  35.125   7.020
  912PAPC   C1A11215   4.869  35.324   6.745
  912PAPC   D2A11216   5.007  35.346   6.343
  912PAPC   D3A11217   4.833  35.481   5.929
  912PAPC   D4A11218   5.191  35.244   5.779
  912PAPC   C5A11219   5.113  35.023   5.410
  912PAPC   C1B11220   4.283  34.994   6.739
  912PAPC   C2B11221   4.324  34.667   6.467
  912PAPC   C3B11222   4.539  34.455   6.106
  912PAPC   C4B11223   4.331  34.374   5.629
  913PAPC   NC311224  12.885  29.817   7.356
  913PAPC   PO411225  12.514  29.997   7.461
  913PAPC   GL111226  12.280  29.879   7.195
  913PAPC   GL211227  12.523  29.885   6.991
  913PAPC   C1A11228  12.071  29.893   6.861
  913PAPC   D2A11229  11.678  30.005   6.800
  913PAPC   D3A11230  11.799  30.324   6.462
  913PAPC   D4A11231  12.014  30.627   6.126
  913PAPC   C5A11232  12.106  30.871   5.826
  913PAPC   C1B11233  12.431  29.904   6.644
  913PAPC   C2B11234  12.540  29.949   6.214
  913PAPC   C3B11235  12.803  30.100   5.810
  913PAPC   C4B11236  13.153  30.248   5.474
  914PAPC   NC311237  34.780  31.387   7.786
  914PAPC   PO411238  34.717  30.996   7.804
  914PAPC   GL111239  34.659  30.850   7.366
  914PAPC   GL211240  34.665  31.132   7.324
  914PAPC   C1A11241  34.735  30.455   7.369
  914PAPC   D2A11242  34.729  30.187   7.124
  914PAPC   D3A11243  34.999  30.168   6.734
  914PAPC   D4A11244  35.202  30.512   6.580
  914PAPC   C5A11245  35.322  30.898   6.871
  914PAPC   C1B11246  34.792  31.083   6.934
  914PAPC   C2B11247  34.850  30.922   6.520
  914PAPC   C3B11248  35.037  30.910   6.122
  914PAPC   C4B11249  35.421  31.025   5.854
  915PAPC   NC311250  12.794  10.562   7.065
  915PAPC   PO411251  13.060  10.598   7.317
  915PAPC   GL111252  13.303  10.382   7.100
  915PAPC   GL211253  13.165  10.265   6.864
  915PAPC   C1A11254  13.602  10.650   7.055
  915PAPC   D2A11255  13.972  10.727   7.110
  915PAPC   D3A11256  14.235  10.412   7.005
  915PAPC   D4A11257  14.360   9.960   6.992
  915PAPC   C5A11258  14.271   9.872   6.539
  915PAPC   C1B11259  13.152  10.216   6.484
  915PAPC   C2B11260  12.984   9.955   6.189
  915PAPC   C3B11261  12.986   9.832   5.659
  915PAPC   C4B11262  12.838   9.676   5.191
  916PAPC   NC311263  15.133  29.724   7.586
  916PAPC   PO411264  15.387  30.041   7.645
  916PAPC   GL111265  15.553  30.381   7.280
  916PAPC   GL211266  15.274  30.310   7.260
  916PAPC   C1A11267  15.691  30.379   6.970
  916PAPC   D2A11268  15.834  30.418   6.584
  916PAPC   D3A11269  15.808  30.804   6.267
  916PAPC   D4A11270  16.081  30.943   5.858
  916PAPC   C5A11271  16.034  30.991   5.415
  916PAPC   C1B11272  15.088  30.416   6.995
  916PAPC   C2B11273  14.904  30.301   6.637
  916PAPC   C3B11274  14.746  30.302   6.179
  916PAPC   C4B11275  14.806  30.339   5.705
  917PAPC   NC311276   5.871  17.605   7.483
  917PAPC   PO411277   5.714  17.464   7.126
  917PAPC   GL111278   5.685  17.541   6.769
  917PAPC   GL211279   5.753  17.778   6.717
  917PAPC   C1A11280   5.765  17.372   6.483
  917PAPC   D2A11281   5.705  17.490   6.090
  917PAPC   D3A11282   5.340  17.542   5.757
  917PAPC   D4A11283   5.321  17.336   5.344
  917PAPC   C5A11284   5.001  17.176   5.030
  917PAPC   C1B11285   5.921  17.747   6.430
  917PAPC   C2B11286   6.209  17.758   6.168
  917PAPC   C3B11287   6.396  17.773   5.721
  917PAPC   C4B11288   6.713  17.481   5.461
  918PAPC   NC311289  14.176  35.842   7.573
  918PAPC   PO411290  14.119  35.476   7.441
  918PAPC   GL111291  14.151  35.176   7.095
  918PAPC   GL211292  14.002  35.444   6.958
  918PAPC   C1A11293  14.451  35.219   6.885
  918PAPC   D2A11294  14.593  35.210   6.502
  918PAPC   D3A11295  14.531  35.156   6.035
  918PAPC   D4A11296  14.654  35.067   5.637
  918PAPC   C5A11297  14.218  35.200   5.522
  918PAPC   C1B11298  13.776  35.344   6.647
  918PAPC   C2B11299  13.448  35.358   6.305
  918PAPC   C3B11300  13.340  35.330   5.878
  918PAPC   C4B11301  13.108  35.316   5.433
  919PAPC   NC311302  24.841  18.495   7.710
  919PAPC   PO411303  24.486  18.314   7.661
  919PAPC   GL111304  24.229  18.151   7.374
  919PAPC   GL211305  24.414  17.952   7.170
  919PAPC   C1A11306  24.046  18.307   7.128
  919PAPC   D2A11307  23.895  18.251   6.751
  919PAPC   D3A11308  23.706  18.356   6.323
  919PAPC   D4A11309  23.251  18.384   6.237
  919PAPC   C5A11310  23.148  18.378   5.741
  919PAPC   C1B11311  24.534  17.940   6.794
  919PAPC   C2B11312  24.783  17.911   6.432
  919PAPC   C3B11313  25.044  18.080   6.082
  919PAPC   C4B11314  25.188  18.220   5.652
  920PAPC   NC311315  19.574   4.627   7.700
  920PAPC   PO411316  19.470   4.502   7.395
  920PAPC   GL111317  19.528   4.563   6.979
  920PAPC   GL211318  19.221   4.665   7.043
  920PAPC   C1A11319  19.501   4.868   6.778
  920PAPC   D2A11320  19.390   5.101   6.471
  920PAPC   D3A11321  19.412   4.791   6.098
  920PAPC   D4A11322  19.669   4.443   6.052
  920PAPC   C5A11323  20.136   4.663   6.042
  920PAPC   C1B11324  19.028   4.706   6.713
  920PAPC   C2B11325  18.903   4.909   6.420
  920PAPC   C3B11326  18.662   5.271   6.275
  920PAPC   C4B11327  18.337   5.272   5.896
  921PAPC   NC311328  13.016   9.681   7.446
  921PAPC   PO411329  12.930   9.971   7.200
  921PAPC   GL111330  12.786   9.992   6.797
  921PAPC   GL211331  13.051   9.847   6.729
  921PAPC   C1A11332  12.658  10.202   6.497
  921PAPC   D2A11333  12.547  10.395   6.193
  921PAPC   D3A11334  12.452  10.498   5.756
  921PAPC   D4A11335  12.492  10.845   5.513
  921PAPC   C5A11336  12.973  10.731   5.475
  921PAPC   C1B11337  13.107   9.611   6.472
  921PAPC   C2B11338  13.102   9.488   6.048
  921PAPC   C3B11339  13.401   9.562   5.692
  921PAPC   C4B11340  13.373   9.766   5.215
  922PAPC   NC311341  13.392   0.625   6.639
  922PAPC   PO411342  13.670   0.659   6.975
  922PAPC   GL111343  13.923   0.364   6.790
  922PAPC   GL211344  14.139   0.448   6.719
  922PAPC   C1A11345  13.874   0.184   6.492
  922PAPC   D2A11346  13.920   0.141   6.097
  922PAPC   D3A11347  13.570   0.211   5.833
  922PAPC   D4A11348  13.445   0.312   5.425
  922PAPC   C5A11349  13.567   0.574   5.091
  922PAPC   C1B11350  14.279   0.349   6.378
  922PAPC   C2B11351  14.399   0.273   5.952
  922PAPC   C3B11352  14.313   0.171   5.550
  922PAPC   C4B11353  14.072   0.471   5.278
  923PAPC   NC311354   7.164   0.395   7.466
  923PAPC   PO411355   7.049   0.049   7.316
  923PAPC   GL111356   6.878  -0.017   6.984
  923PAPC   GL211357   6.710   0.246   6.894
  923PAPC   C1A11358   6.693  -0.215   6.678
  923PAPC   D2A11359   6.594  -0.107   6.329
  923PAPC   D3A11360   6.645  -0.158   5.940
  923PAPC   D4A11361   6.825  -0.561   5.853
  923PAPC   C5A11362   6.818  -0.914   6.216
  923PAPC   C1B11363   6.671   0.410   6.570
  923PAPC   C2B11364   6.611   0.576   6.202
  923PAPC   C3B11365   6.699   0.642   5.711
  923PAPC   C4B11366   6.844   0.886   5.285
  924PAPC   NC311367  29.954  31.503   8.060
  924PAPC   PO411368  30.275  31.517   7.837
  924PAPC   GL111369  30.353  31.358   7.387
  924PAPC   GL211370  30.269  31.558   7.325
  924PAPC   C1A11371  30.486  31.218   7.076
  924PAPC   D2A11372  30.457  30.852   7.057
  924PAPC   D3A11373  30.700  30.963   6.753
  924PAPC   D4A11374  30.762  30.896   6.294
  924PAPC   C5A11375  30.784  30.844   5.772
  924PAPC   C1B11376  30.328  31.622   6.919
  924PAPC   C2B11377  30.486  31.694   6.545
  924PAPC   C3B11378  30.598  31.758   6.120
  924PAPC   C4B11379  30.865  31.750   5.666
  925PAPC   NC311380  23.286  33.227   7.237
  925PAPC   PO411381  23.677  33.310   7.175
  925PAPC   GL111382  23.764  33.259   6.733
  925PAPC   GL211383  23.485  33.084   6.831
  925PAPC   C1A11384  23.760  33.469   6.420
  925PAPC   D2A11385  24.049  33.585   6.119
  925PAPC   D3A11386  24.063  33.523   5.668
  925PAPC   D4A11387  24.155  33.149   5.357
  925PAPC   C5A11388  24.263  33.008   4.850
  925PAPC   C1B11389  23.144  33.234   6.723
  925PAPC   C2B11390  22.941  33.475   6.474
  925PAPC   C3B11391  22.935  33.495   6.034
  925PAPC   C4B11392  22.665  33.765   5.633
  926PAPC   NC311393  34.581  21.093   7.986
  926PAPC   PO411394  34.804  21.274   7.737
  926PAPC   GL111395  34.981  21.299   7.359
  926PAPC   GL211396  35.155  21.620   7.431
  926PAPC   C1A11397  35.187  21.125   7.152
  926PAPC   D2A11398  35.299  20.885   6.887
  926PAPC   D3A11399  35.278  20.901   6.431
  926PAPC   D4A11400  35.619  20.895   6.166
  926PAPC   C5A11401  35.935  21.132   5.864
  926PAPC   C1B11402  35.278  21.896   7.230
  926PAPC   C2B11403  35.464  22.130   6.875
  926PAPC   C3B11404  35.527  22.081   6.449
  926PAPC   C4B11405  35.616  22.118   6.000
  927PAPC   NC311406   5.884  28.126   7.785
  927PAPC   PO411407   5.761  27.819   7.517
  927PAPC   GL111408   5.573  27.518   7.257
  927PAPC   GL211409   5.314  27.694   7.203
  927PAPC   C1A11410   5.355  27.267   7.177
  927PAPC   D2A11411   5.139  27.353   6.841
  927PAPC   D3A11412   4.743  27.574   6.924
  927PAPC   D4A11413   4.765  27.970   6.851
  927PAPC   C5A11414   4.642  28.236   6.479
  927PAPC   C1B11415   5.198  27.862   6.909
  927PAPC   C2B11416   5.076  27.884   6.489
  927PAPC   C3B11417   4.924  28.075   6.118
  927PAPC   C4B11418   4.783  28.191   5.668
  928PAPC   NC311419  17.071   3.019   7.674
  928PAPC   PO411420  16.790   2.858   7.458
  928PAPC   GL111421  16.741   3.040   7.126
  928PAPC   GL211422  16.458   3.042   7.059
  928PAPC   C1A11423  16.866   3.014   6.792
  928PAPC   D2A11424  17.228   3.031   6.713
  928PAPC   D3A11425  17.577   3.021   6.987
  928PAPC   D4A11426  18.010   3.041   7.051
  928PAPC   C5A11427  18.277   3.065   6.664
  928PAPC   C1B11428  16.483   3.090   6.726
  928PAPC   C2B11429  16.575   2.911   6.363
  928PAPC   C3B11430  16.613   2.844   5.896
  928PAPC   C4B11431  16.599   2.813   5.405
  929PAPC   NC311432  35.725  12.418   7.881
  929PAPC   PO411433  35.994  12.716   8.021
  929PAPC   GL111434  36.030  12.752   7.626
  929PAPC   GL211435  35.857  12.634   7.496
  929PAPC   C1A11436  36.097  13.014   7.363
  929PAPC   D2A11437  36.312  12.969   7.049
  929PAPC   D3A11438  36.667  12.801   7.251
  929PAPC   D4A11439  37.078  12.678   7.378
  929PAPC   C5A11440  37.262  12.270   7.174
  929PAPC   C1B11441  35.878  12.629   7.148
  929PAPC   C2B11442  35.974  12.749   6.763
  929PAPC   C3B11443  36.037  12.811   6.267
  929PAPC   C4B11444  36.214  12.633   5.852
  930PAPC   NC311445  26.021  24.363   7.834
  930PAPC   PO411446  26.015  24.563   7.471
  930PAPC   GL111447  25.865  24.371   7.169
  930PAPC   GL211448  26.036  24.548   6.994
  930PAPC   C1A11449  25.667  24.273   6.883
  930PAPC   D2A11450  25.678  24.528   6.541
  930PAPC   D3A11451  25.321  24.732   6.349
  930PAPC   D4A11452  25.295  24.703   5.902
  930PAPC   C5A11453  25.637  24.544   5.668
  930PAPC   C1B11454  26.039  24.331   6.723
  930PAPC   C2B11455  26.082  24.097   6.337
  930PAPC   C3B11456  26.037  23.877   5.950
  930PAPC   C4B11457  26.139  23.687   5.530
  931PAPC   NC311458   7.436  30.511   7.367
  931PAPC   PO411459   7.391  30.259   7.127
  931PAPC   GL111460   7.368  30.416   6.787
  931PAPC   GL211461   7.092  30.416   6.639
  931PAPC   C1A11462   7.608  30.570   6.567
  931PAPC   D2A11463   7.725  30.974   6.489
  931PAPC   D3A11464   7.682  31.223   6.879
  931PAPC   D4A11465   7.958  31.548   6.993
  931PAPC   C5A11466   8.302  31.593   6.649
  931PAPC   C1B11467   7.285  30.264   6.351
  931PAPC   C2B11468   7.461  30.201   5.976
  931PAPC   C3B11469   7.708  30.019   5.583
  931PAPC   C4B11470   7.551  30.192   5.154
  932PAPC   NC311471  13.785   8.595   8.089
  932PAPC   PO411472  13.494   8.536   7.850
  932PAPC   GL111473  13.622   8.701   7.488
  932PAPC   GL211474  13.547   8.400   7.410
  932PAPC   C1A11475  13.562   8.934   7.234
  932PAPC   D2A11476  13.604   9.123   6.867
  932PAPC   D3A11477  13.272   8.900   6.653
  932PAPC   D4A11478  13.469   9.283   6.420
  932PAPC   C5A11479  13.503   9.137   6.005
  932PAPC   C1B11480  13.720   8.505   7.123
  932PAPC   C2B11481  13.740   8.626   6.728
  932PAPC   C3B11482  13.761   8.714   6.279
  932PAPC   C4B11483  13.830   8.731   5.791
  933PAPC   NC311484   4.130  19.854   7.024
  933PAPC   PO411485   3.990  19.916   7.357
  933PAPC   GL111486   3.685  19.817   7.159
  933PAPC   GL211487   3.660  20.069   6.954
  933PAPC   C1A11488   3.751  19.617   6.832
  933PAPC   D2A11489   3.902  19.865   6.567
  933PAPC   D3A11490   3.634  20.138   6.300
  933PAPC   D4A11491   3.677  20.327   5.914
  933PAPC   C5A11492   3.376  20.592   5.717
  933PAPC   C1B11493   3.379  20.035   6.740
  933PAPC   C2B11494   3.209  19.888   6.401
  933PAPC   C3B11495   2.945  19.836   5.974
  933PAPC   C4B11496   2.778  19.593   5.596
  934PAPC   NC311497  20.644  35.327   7.428
  934PAPC   PO411498  20.271  35.322   7.548
  934PAPC   GL111499  19.952  35.230   7.210
  934PAPC   GL211500  20.236  35.023   7.192
  934PAPC   C1A11501  20.035  35.253   6.870
  934PAPC   D2A11502  20.210  35.176   6.511
  934PAPC   D3A11503  20.018  35.169   6.058
  934PAPC   D4A11504  19.819  35.090   5.732
  934PAPC   C5A11505  19.731  34.969   5.258
  934PAPC   C1B11506  20.259  34.769   6.865
  934PAPC   C2B11507  20.323  34.636   6.478
  934PAPC   C3B11508  20.340  34.357   6.183
  934PAPC   C4B11509  20.211  34.289   5.707
  935PAPC   NC311510  34.655   6.871   7.671
  935PAPC   PO411511  34.628   6.497   7.506
  935PAPC   GL111512  34.611   6.435   7.099
  935PAPC   GL211513  34.481   6.676   7.035
  935PAPC   C1A11514  34.252   6.328   6.946
  935PAPC   D2A11515  33.877   6.161   6.946
  935PAPC   D3A11516  33.890   5.787   6.730
  935PAPC   D4A11517  34.160   5.694   6.356
  935PAPC   C5A11518  34.021   5.812   5.879
  935PAPC   C1B11519  34.295   6.767   6.736
  935PAPC   C2B11520  34.204   6.976   6.347
  935PAPC   C3B11521  34.118   7.269   6.019
  935PAPC   C4B11522  34.340   7.690   5.903
  936PAPC   NC311523   3.442  26.417   7.983
  936PAPC   PO411524   3.341  26.311   7.610
  936PAPC   GL111525   3.353  26.347   7.175
  936PAPC   GL211526   3.574  26.167   7.167
  936PAPC   C1A11527   3.244  26.517   6.897
  936PAPC   D2A11528   3.222  26.688   6.559
  936PAPC   D3A11529   3.362  26.669   6.117
  936PAPC   D4A11530   3.663  26.632   5.804
  936PAPC   C5A11531   3.690  26.312   5.434
  936PAPC   C1B11532   3.458  26.119   6.825
  936PAPC   C2B11533   3.428  26.167   6.410
  936PAPC   C3B11534   3.659  26.082   5.985
  936PAPC   C4B11535   3.740  25.737   5.623
  937PAPC   NC311536  26.084  20.013   7.509
  937PAPC   PO411537  26.063  20.390   7.377
  937PAPC   GL111538  25.909  20.275   6.961
  937PAPC   GL211539  26.078  20.409   6.889
  937PAPC   C1A11540  25.609  20.175   6.773
  937PAPC   D2A11541  25.507  20.380   6.428
  937PAPC   D3A11542  25.384  20.775   6.497
  937PAPC   D4A11543  25.461  20.836   6.134
  937PAPC   C5A11544  25.612  20.699   5.744
  937PAPC   C1B11545  25.999  20.471   6.520
  937PAPC   C2B11546  25.899  20.517   6.123
  937PAPC   C3B11547  26.076  20.590   5.685
  937PAPC   C4B11548  26.079  20.544   5.207
  938PAPC   NC311549  24.602  25.233   7.181
  938PAPC   PO411550  24.880  24.951   7.206
  938PAPC   GL111551  24.882  25.035   6.854
  938PAPC   GL211552  24.907  25.286   6.728
  938PAPC   C1A11553  24.627  24.917   6.616
  938PAPC   D2A11554  24.590  24.993   6.198
  938PAPC   D3A11555  24.542  24.803   5.767
  938PAPC   D4A11556  24.468  24.907   5.319
  938PAPC   C5A11557  24.157  24.582   5.184
  938PAPC   C1B11558  25.035  25.169   6.401
  938PAPC   C2B11559  25.020  25.095   6.055
  938PAPC   C3B11560  24.966  24.938   5.604
  938PAPC   C4B11561  25.307  24.800   5.312
  939PAPC   NC311562   7.235   8.043   8.024
  939PAPC   PO411563   7.103   8.206   7.651
  939PAPC   GL111564   7.017   8.211   7.264
  939PAPC   GL211565   7.001   8.506   7.179
  939PAPC   C1A11566   7.217   8.200   6.907
  939PAPC   D2A11567   7.542   8.063   6.761
  939PAPC   D3A11568   7.871   7.763   6.624
  939PAPC   D4A11569   8.188   7.957   6.363
  939PAPC   C5A11570   8.295   8.072   5.959
  939PAPC   C1B11571   7.183   8.582   6.883
  939PAPC   C2B11572   7.309   8.401   6.506
  939PAPC   C3B11573   7.276   8.127   6.116
  939PAPC   C4B11574   7.287   7.655   5.983
  940PAPC   NC311575   5.554  21.576   7.760
  940PAPC   PO411576   5.863  21.495   7.510
  940PAPC   GL111577   6.023  21.226   7.148
  940PAPC   GL211578   5.774  21.203   7.145
  940PAPC   C1A11579   6.242  21.216   6.861
  940PAPC   D2A11580   6.538  21.175   6.565
  940PAPC   D3A11581   6.508  21.295   6.183
  940PAPC   D4A11582   6.467  21.100   5.807
  940PAPC   C5A11583   6.631  20.695   5.639
  940PAPC   C1B11584   5.672  21.054   6.832
  940PAPC   C2B11585   5.489  21.061   6.564
  940PAPC   C3B11586   5.348  21.188   6.136
  940PAPC   C4B11587   5.286  21.411   5.737
  941PAPC   NC311588  26.474  29.775   6.812
  941PAPC   PO411589  26.785  29.542   6.748
  941PAPC   GL111590  27.068  29.717   6.523
  941PAPC   GL211591  27.093  29.429   6.414
  941PAPC   C1A11592  27.076  30.003   6.326
  941PAPC   D2A11593  26.938  29.879   5.998
  941PAPC   D3A11594  26.725  30.063   5.650
  941PAPC   D4A11595  26.959  30.305   5.281
  941PAPC   C5A11596  26.632  30.363   4.901
  941PAPC   C1B11597  27.036  29.452   6.083
  941PAPC   C2B11598  27.042  29.548   5.630
  941PAPC   C3B11599  27.109  29.750   5.155
  941PAPC   C4B11600  27.114  30.026   4.757
  942PAPC   NC311601  28.420  27.470   6.848
  942PAPC   PO411602  28.326  27.829   6.951
  942PAPC   GL111603  28.595  27.942   6.698
  942PAPC   GL211604  28.797  27.713   6.899
  942PAPC   C1A11605  28.430  27.813   6.371
  942PAPC   D2A11606  28.260  27.530   6.171
  942PAPC   D3A11607  28.299  27.555   5.678
  942PAPC   D4A11608  28.301  27.723   5.206
  942PAPC   C5A11609  28.168  27.683   4.744
  942PAPC   C1B11610  29.098  27.703   6.671
  942PAPC   C2B11611  29.388  27.482   6.462
  942PAPC   C3B11612  29.682  27.548   6.081
  942PAPC   C4B11613  30.177  27.394   5.984
  943PAPC   NC311614  25.319  15.641   7.347
  943PAPC   PO411615  24.978  15.778   7.510
  943PAPC   GL111616  24.959  16.195   7.480
  943PAPC   GL211617  25.266  16.216   7.412
  943PAPC   C1A11618  24.654  16.379   7.423
  943PAPC   D2A11619  24.492  16.701   7.321
  943PAPC   D3A11620  24.324  16.792   6.921
  943PAPC   D4A11621  24.520  16.752   6.578
  943PAPC   C5A11622  24.824  16.448   6.401
  943PAPC   C1B11623  25.071  16.220   7.062
  943PAPC   C2B11624  24.923  16.095   6.741
  943PAPC   C3B11625  24.761  15.942   6.381
  943PAPC   C4B11626  24.528  16.079   5.938
  944PAPC   NC311627  20.228   2.575   7.001
  944PAPC   PO411628  20.218   2.289   7.265
  944PAPC   GL111629  20.291   2.015   6.921
  944PAPC   GL211630  19.966   2.075   6.923
  944PAPC   C1A11631  20.355   2.282   6.678
  944PAPC   D2A11632  20.220   2.236   6.303
  944PAPC   D3A11633  20.084   2.529   5.999
  944PAPC   D4A11634  20.105   2.760   5.640
  944PAPC   C5A11635  19.821   3.004   5.874
  944PAPC   C1B11636  19.726   1.776   6.765
  944PAPC   C2B11637  19.615   1.555   6.435
  944PAPC   C3B11638  19.588   1.682   5.932
  944PAPC   C4B11639  19.657   1.939   5.459
  945PAPC   NC311640  21.877  10.244   7.502
  945PAPC   PO411641  21.993  10.606   7.329
  945PAPC   GL111642  21.979  10.528   7.015
  945PAPC   GL211643  21.709  10.747   7.031
  945PAPC   C1A11644  21.937  10.208   6.793
  945PAPC   D2A11645  21.933   9.840   6.657
  945PAPC   D3A11646  21.810   9.739   6.224
  945PAPC   D4A11647  22.081   9.574   5.835
  945PAPC   C5A11648  21.976  10.005   5.603
  945PAPC   C1B11649  21.419  10.807   6.765
  945PAPC   C2B11650  21.163  10.846   6.434
  945PAPC   C3B11651  20.900  10.798   6.005
  945PAPC   C4B11652  20.773  10.549   5.645
  946PAPC   NC311653  23.240  31.552   7.940
  946PAPC   PO411654  23.084  31.815   7.669
  946PAPC   GL111655  22.950  31.795   7.276
  946PAPC   GL211656  22.880  32.095   7.267
  946PAPC   C1A11657  22.679  31.621   7.030
  946PAPC   D2A11658  22.344  31.551   7.147
  946PAPC   D3A11659  22.189  31.165   7.188
  946PAPC   D4A11660  22.244  30.873   6.844
  946PAPC   C5A11661  21.941  30.921   6.468
  946PAPC   C1B11662  22.970  31.963   6.926
  946PAPC   C2B11663  22.802  31.761   6.580
  946PAPC   C3B11664  22.543  31.694   6.238
  946PAPC   C4B11665  22.357  31.606   5.822
  947PAPC   NC311666  27.353  34.908   7.211
  947PAPC   PO411667  27.606  35.171   7.211
  947PAPC   GL111668  27.861  35.314   6.939
  947PAPC   GL211669  27.923  35.044   6.801
  947PAPC   C1A11670  27.944  35.714   6.908
  947PAPC   D2A11671  27.901  36.065   6.709
  947PAPC   D3A11672  27.792  36.032   6.290
  947PAPC   D4A11673  27.630  35.638   6.048
  947PAPC   C5A11674  27.778  35.201   6.112
  947PAPC   C1B11675  27.858  34.870   6.500
  947PAPC   C2B11676  27.861  34.721   6.091
  947PAPC   C3B11677  27.717  34.781   5.610
  947PAPC   C4B11678  27.605  34.680   5.059
  948PAPC   NC311679  20.664  15.212   7.664
  948PAPC   PO411680  20.852  14.866   7.585
  948PAPC   GL111681  20.910  14.684   7.261
  948PAPC   GL211682  21.209  14.717   7.263
  948PAPC   C1A11683  20.887  14.576   6.943
  948PAPC   D2A11684  21.021  14.398   6.651
  948PAPC   D3A11685  21.321  14.613   6.350
  948PAPC   D4A11686  21.159  14.784   5.964
  948PAPC   C5A11687  21.253  14.561   5.572
  948PAPC   C1B11688  21.239  14.857   6.922
  948PAPC   C2B11689  21.288  15.047   6.573
  948PAPC   C3B11690  21.543  15.126   6.176
  948PAPC   C4B11691  21.787  15.291   5.771
  949POPE   NH311692  27.958  24.488   7.204
  949POPE   PO411693  27.937  24.698   6.934
  949POPE   GL111694  27.589  24.512   6.856
  949POPE   GL211695  27.407  24.749   6.694
  949POPE   C1A11696  27.448  24.097   6.961
  949POPE   D2A11697  27.381  23.788   6.555
  949POPE   C3A11698  27.374  23.760   6.115
  949POPE   C4A11699  27.461  23.751   5.608
  949POPE   C1B11700  27.287  24.627   6.401
  949POPE   C2B11701  27.360  24.576   6.035
  949POPE   C3B11702  27.616  24.628   5.618
  949POPE   C4B11703  27.931  24.528   5.227
  950POPE   NH311704  26.704  19.851   7.355
  950POPE   PO411705  26.405  19.685   7.257
  950POPE   GL111706  26.395  19.441   6.954
  950POPE   GL211707  26.647  19.360   7.051
  950POPE   C1A11708  26.301  19.419   6.552
  950POPE   D2A11709  26.017  19.437   6.175
  950POPE   C3A11710  25.621  19.409   5.886
  950POPE   C4A11711  25.315  19.011   5.788
  950POPE   C1B11712  26.685  19.226   6.708
  950POPE   C2B11713  26.678  19.125   6.316
  950POPE   C3B11714  26.689  18.960   5.875
  950POPE   C4B11715  26.953  18.882   5.451
  951POPE   NH311716  22.366   0.885   7.264
  951POPE   PO411717  22.598   0.735   7.456
  951POPE   GL111718  22.851   0.891   7.077
  951POPE   GL211719  22.844   0.621   7.068
  951POPE   C1A11720  23.010   1.026   6.739
  951POPE   D2A11721  23.530   1.057   6.631
  951POPE   C3A11722  23.501   1.078   6.208
  951POPE   C4A11723  23.548   1.288   5.749
  951POPE   C1B11724  22.890   0.489   6.702
  951POPE   C2B11725  22.921   0.385   6.315
  951POPE   C3B11726  22.937   0.291   5.802
  951POPE   C4B11727  22.824   0.266   5.350
  952POPE   NH311728  17.108  17.461   8.117
  952POPE   PO411729  16.833  17.693   8.091
  952POPE   GL111730  17.029  17.916   7.800
  952POPE   GL211731  17.036  17.577   7.629
  952POPE   C1A11732  17.395  18.075   7.575
  952POPE   D2A11733  17.683  18.160   7.146
  952POPE   C3A11734  17.536  18.111   6.683
  952POPE   C4A11735  17.650  18.129   6.182
  952POPE   C1B11736  17.217  17.694   7.365
  952POPE   C2B11737  17.355  17.755   6.973
  952POPE   C3B11738  17.513  17.617   6.553
  952POPE   C4B11739  17.594  17.580   6.101
  953POPE   NH311740  20.421   1.685   7.336
  953POPE   PO411741  20.080   1.547   7.407
  953POPE   GL111742  19.876   1.638   7.085
  953POPE   GL211743  20.160   1.557   6.904
  953POPE   C1A11744  19.538   1.384   6.985
  953POPE   D2A11745  19.419   1.149   6.553
  953POPE   C3A11746  19.381   1.121   6.104
  953POPE   C4A11747  19.639   1.175   5.609
  953POPE   C1B11748  20.146   1.550   6.503
  953POPE   C2B11749  20.071   1.533   6.096
  953POPE   C3B11750  19.935   1.569   5.617
  953POPE   C4B11751  19.746   1.541   5.193
  954POPE   NH311752   7.235   6.776   7.724
  954POPE   PO411753   7.357   6.438   7.669
  954POPE   GL111754   7.284   6.247   7.255
  954POPE   GL211755   7.421   6.514   7.163
  954POPE   C1A11756   7.281   6.132   6.872
  954POPE   D2A11757   7.285   5.983   6.423
  954POPE   C3A11758   7.301   6.066   5.931
  954POPE   C4A11759   7.369   5.841   5.580
  954POPE   C1B11760   7.481   6.624   6.800
  954POPE   C2B11761   7.488   6.847   6.424
  954POPE   C3B11762   7.451   7.058   6.029
  954POPE   C4B11763   7.553   6.951   5.554
  955POPE   NH311764  33.923  11.277   7.626
  955POPE   PO411765  33.668  11.077   7.455
  955POPE   GL111766  33.833  11.096   7.056
  955POPE   GL211767  33.556  11.087   6.960
  955POPE   C1A11768  33.980  10.956   6.672
  955POPE   D2A11769  33.882  10.760   6.203
  955POPE   C3A11770  33.892  10.896   5.806
  955POPE   C4A11771  33.996  11.096   5.363
  955POPE   C1B11772  33.493  10.919   6.642
  955POPE   C2B11773  33.374  10.755   6.297
  955POPE   C3B11774  33.208  10.707   5.841
  955POPE   C4B11775  33.036  10.761   5.364
  956POPE   NH311776  10.580   0.240   7.014
  956POPE   PO411777  10.913   0.137   7.036
  956POPE   GL111778  11.172   0.234   6.656
  956POPE   GL211779  11.237  -0.115   6.677
  956POPE   C1A11780  11.091   0.378   6.299
  956POPE   D2A11781  11.029   0.365   5.829
  956POPE   C3A11782  11.143   0.412   5.461
  956POPE   C4A11783  10.917   0.572   5.020
  956POPE   C1B11784  11.130  -0.341   6.402
  956POPE   C2B11785  11.107  -0.434   5.974
  956POPE   C3B11786  11.067  -0.516   5.485
  956POPE   C4B11787  11.150  -0.668   5.038
  957POPE   NH311788  29.813   4.212   7.771
  957POPE   PO411789  30.106   4.061   7.834
  957POPE   GL111790  30.196   4.119   7.374
  957POPE   GL211791  30.215   4.361   7.542
  957POPE   C1A11792  30.594   4.013   7.270
  957POPE   D2A11793  31.004   3.786   7.280
  957POPE   C3A11794  31.041   3.406   6.964
  957POPE   C4A11795  30.970   3.317   6.528
  957POPE   C1B11796  30.523   4.543   7.449
  957POPE   C2B11797  30.633   4.499   7.061
  957POPE   C3B11798  30.657   4.270   6.670
  957POPE   C4B11799  30.559   4.383   6.253
  958POPE   NH311800  23.817   3.907   7.762
  958POPE   PO411801  23.594   4.171   7.822
  958POPE   GL111802  23.576   4.295   7.417
  958POPE   GL211803  23.363   4.516   7.524
  958POPE   C1A11804  23.540   4.227   6.959
  958POPE   D2A11805  23.454   4.169   6.519
  958POPE   C3A11806  23.624   4.135   6.155
  958POPE   C4A11807  23.508   4.229   5.605
  958POPE   C1B11808  23.232   4.529   7.189
  958POPE   C2B11809  23.258   4.613   6.760
  958POPE   C3B11810  23.358   4.632   6.285
  958POPE   C4B11811  23.454   4.675   5.761
  959POPE   NH311812   3.285  16.059   8.182
  959POPE   PO411813   3.117  15.784   8.050
  959POPE   GL111814   2.992  15.778   7.655
  959POPE   GL211815   3.206  15.768   7.586
  959POPE   C1A11816   2.702  15.628   7.353
  959POPE   D2A11817   2.635  15.478   6.802
  959POPE   C3A11818   2.560  15.369   6.388
  959POPE   C4A11819   2.496  14.918   6.105
  959POPE   C1B11820   3.169  15.557   7.293
  959POPE   C2B11821   3.068  15.322   7.045
  959POPE   C3B11822   3.061  15.130   6.599
  959POPE   C4B11823   3.130  15.015   6.160
  960POPE   NH311824   5.215  18.427   7.581
  960POPE   PO411825   5.258  18.153   7.432
  960POPE   GL111826   5.140  18.229   7.022
  960POPE   GL211827   5.022  18.514   7.104
  960POPE   C1A11828   5.148  18.023   6.628
  960POPE   D2A11829   5.287  17.757   6.293
  960POPE   C3A11830   5.176  17.975   5.887
  960POPE   C4A11831   5.295  17.905   5.385
  960POPE   C1B11832   5.060  18.751   6.855
  960POPE   C2B11833   5.330  18.594   6.591
  960POPE   C3B11834   5.333  18.402   6.174
  960POPE   C4B11835   5.312  18.403   5.657
  961POPE   NH311836   0.980  12.669   8.321
  961POPE   PO411837   1.005  12.457   8.048
  961POPE   GL111838   0.781  12.304   7.667
  961POPE   GL211839   0.602  12.539   7.678
  961POPE   C1A11840   0.722  12.242   7.178
  961POPE   D2A11841   0.873  12.534   6.817
  961POPE   C3A11842   0.910  12.596   6.362
  961POPE   C4A11843   0.583  12.325   6.106
  961POPE   C1B11844   0.377  12.428   7.391
  961POPE   C2B11845   0.338  12.488   6.977
  961POPE   C3B11846   0.504  12.778   6.634
  961POPE   C4B11847   0.652  13.012   6.227
  962POPE   NH311848  16.730  33.369   7.580
  962POPE   PO411849  16.607  33.108   7.461
  962POPE   GL111850  16.647  33.103   7.061
  962POPE   GL211851  16.892  33.196   7.020
  962POPE   C1A11852  16.538  32.857   6.687
  962POPE   D2A11853  16.455  32.751   6.242
  962POPE   C3A11854  16.504  32.621   5.779
  962POPE   C4A11855  16.455  32.374   5.383
  962POPE   C1B11856  16.992  32.987   6.807
  962POPE   C2B11857  16.933  32.970   6.373
  962POPE   C3B11858  16.902  32.874   5.916
  962POPE   C4B11859  16.752  32.884   5.426
  963POPE   NH311860  15.330  11.104   7.490
  963POPE   PO411861  15.444  10.801   7.560
  963POPE   GL111862  15.779  10.630   7.422
  963POPE   GL211863  15.827  10.879   7.254
  963POPE   C1A11864  15.747  10.278   7.130
  963POPE   D2A11865  15.602  10.028   6.699
  963POPE   C3A11866  15.384   9.960   6.279
  963POPE   C4A11867  15.376   9.908   5.825
  963POPE   C1B11868  15.800  10.889   6.850
  963POPE   C2B11869  15.680  10.888   6.462
  963POPE   C3B11870  15.394  10.998   6.018
  963POPE   C4B11871  15.047  11.045   5.691
  964POPE   NH311872   2.417  17.493   7.705
  964POPE   PO411873   2.357  17.801   7.712
  964POPE   GL111874   2.322  17.880   7.311
  964POPE   GL211875   2.619  17.976   7.259
  964POPE   C1A11876   1.992  18.250   7.196
  964POPE   D2A11877   1.683  18.246   6.780
  964POPE   C3A11878   1.719  18.646   6.551
  964POPE   C4A11879   1.528  18.625   6.145
  964POPE   C1B11880   2.536  18.233   7.087
  964POPE   C2B11881   2.678  18.415   6.765
  964POPE   C3B11882   2.848  18.591   6.341
  964POPE   C4B11883   3.175  18.375   6.092
  965POPE   NH311884  25.058  26.802   7.655
  965POPE   PO411885  24.763  26.565   7.631
  965POPE   GL111886  24.696  26.361   7.273
  965POPE   GL211887  24.444  26.555   7.220
  965POPE   C1A11888  24.708  26.261   6.858
  965POPE   D2A11889  24.746  25.951   6.436
  965POPE   C3A11890  24.620  26.241   6.044
  965POPE   C4A11891  24.415  26.163   5.609
  965POPE   C1B11892  24.450  26.694   6.885
  965POPE   C2B11893  24.437  26.639   6.469
  965POPE   C3B11894  24.370  26.679   5.953
  965POPE   C4B11895  24.197  26.730   5.494
  966POPE   NH311896  27.657  25.768   7.667
  966POPE   PO411897  27.815  25.869   7.320
  966POPE   GL111898  27.930  25.698   6.970
  966POPE   GL211899  28.189  25.716   6.957
  966POPE   C1A11900  27.660  25.760   6.597
  966POPE   D2A11901  27.581  25.947   6.147
  966POPE   C3A11902  27.881  25.914   5.766
  966POPE   C4A11903  28.176  26.036   5.375
  966POPE   C1B11904  28.172  25.779   6.651
  966POPE   C2B11905  28.240  25.885   6.264
  966POPE   C3B11906  28.342  25.765   5.816
  966POPE   C4B11907  28.531  25.532   5.374
  967POPE   NH311908  18.564  24.055   7.583
  967POPE   PO411909  18.300  23.845   7.481
  967POPE   GL111910  18.323  23.926   7.024
  967POPE   GL211911  18.609  23.979   7.090
  967POPE   C1A11912  18.296  24.008   6.589
  967POPE   D2A11913  18.247  24.081   6.122
  967POPE   C3A11914  18.455  24.407   5.823
  967POPE   C4A11915  18.528  24.904   5.627
  967POPE   C1B11916  18.688  23.803   6.729
  967POPE   C2B11917  18.786  23.734   6.378
  967POPE   C3B11918  19.130  23.734   6.077
  967POPE   C4B11919  19.393  23.675   5.693
  968POPE   NH311920   9.682   1.799   7.427
  968POPE   PO411921   9.366   1.645   7.327
  968POPE   GL111922   9.472   1.880   6.997
  968POPE   GL211923   9.707   1.655   6.926
  968POPE   C1A11924   9.380   2.046   6.604
  968POPE   D2A11925   9.462   1.968   6.134
  968POPE   C3A11926   9.395   2.021   5.711
  968POPE   C4A11927   9.185   1.988   5.251
  968POPE   C1B11928   9.777   1.566   6.562
  968POPE   C2B11929   9.812   1.491   6.183
  968POPE   C3B11930   9.764   1.625   5.726
  968POPE   C4B11931   9.691   1.856   5.263
  969POPE   NH311932  14.267  28.304   7.442
  969POPE   PO411933  14.432  28.039   7.356
  969POPE   GL111934  14.002  28.047   7.115
  969POPE   GL211935  14.237  28.136   6.916
  969POPE   C1A11936  13.781  28.328   6.860
  969POPE   D2A11937  13.653  28.721   6.643
  969POPE   C3A11938  13.314  28.643   6.338
  969POPE   C4A11939  13.381  28.642   5.894
  969POPE   C1B11940  14.057  28.127   6.590
  969POPE   C2B11941  13.807  28.310   6.272
  969POPE   C3B11942  13.570  28.174   5.901
  969POPE   C4B11943  13.334  28.032   5.476
  970POPE   NH311944  25.813  12.427   7.589
  970POPE   PO411945  25.565  12.652   7.565
  970POPE   GL111946  25.708  12.764   7.191
  970POPE   GL211947  25.914  12.885   7.178
  970POPE   C1A11948  25.620  12.531   6.813
  970POPE   D2A11949  25.309  12.099   6.651
  970POPE   C3A11950  25.543  11.984   6.260
  970POPE   C4A11951  25.463  11.700   5.907
  970POPE   C1B11952  26.047  12.810   6.830
  970POPE   C2B11953  26.093  12.740   6.422
  970POPE   C3B11954  26.093  12.696   5.891
  970POPE   C4B11955  25.962  12.364   5.484
  971POPE   NH311956  19.150  35.587   7.931
  971POPE   PO411957  19.166  35.338   7.730
  971POPE   GL111958  19.386  35.344   7.354
  971POPE   GL211959  19.484  35.072   7.407
  971POPE   C1A11960  19.612  35.378   6.953
  971POPE   D2A11961  19.712  35.274   6.480
  971POPE   C3A11962  19.414  35.311   6.121
  971POPE   C4A11963  19.007  35.145   5.885
  971POPE   C1B11964  19.379  35.001   7.072
  971POPE   C2B11965  19.273  34.985   6.645
  971POPE   C3B11966  19.293  34.838   6.177
  971POPE   C4B11967  19.385  34.882   5.654
  972POPE   NH311968  17.912   1.465   7.611
  972POPE   PO411969  17.994   1.140   7.575
  972POPE   GL111970  18.217   1.160   7.221
  972POPE   GL211971  18.103   1.229   7.031
  972POPE   C1A11972  18.608   1.209   7.151
  972POPE   D2A11973  18.961   1.523   6.972
  972POPE   C3A11974  19.111   1.597   6.540
  972POPE   C4A11975  19.104   1.737   6.019
  972POPE   C1B11976  18.193   1.263   6.679
  972POPE   C2B11977  18.197   1.363   6.313
  972POPE   C3B11978  18.385   1.183   5.924
  972POPE   C4B11979  18.494   1.395   5.545
  973POPE   NH311980  21.154  15.714   7.687
  973POPE   PO411981  21.049  15.435   7.482
  973POPE   GL111982  21.090  15.471   7.071
  973POPE   GL211983  20.983  15.157   7.025
  973POPE   C1A11984  21.349  15.563   6.780
  973POPE   D2A11985  21.573  15.782   6.379
  973POPE   C3A11986  21.669  16.271   6.314
  973POPE   C4A11987  21.700  16.775   6.158
  973POPE   C1B11988  20.768  14.997   6.734
  973POPE   C2B11989  20.853  14.993   6.344
  973POPE   C3B11990  20.814  15.255   5.893
  973POPE   C4B11991  21.126  15.315   5.532
  974POPE   NH311992  15.518  19.303   7.898
  974POPE   PO411993  15.473  19.509   7.606
  974POPE   GL111994  15.625  19.235   7.227
  974POPE   GL211995  15.373  19.125   7.305
  974POPE   C1A11996  15.658  19.168   6.810
  974POPE   D2A11997  15.705  19.233   6.362
  974POPE   C3A11998  15.625  19.418   5.927
  974POPE   C4A11999  15.763  19.560   5.466
  974POPE   C1B12000  15.027  19.213   7.237
  974POPE   C2B12001  14.629  19.283   7.355
  974POPE   C3B12002  14.322  19.533   7.142
  974POPE   C4B12003  13.925  19.757   7.042
  975POPE   NH312004   9.778   9.900   7.346
  975POPE   PO412005   9.565   9.653   7.220
  975POPE   GL112006   9.762   9.745   6.910
  975POPE   GL212007   9.539   9.564   6.768
  975POPE   C1A12008  10.039   9.608   6.584
  975POPE   D2A12009   9.856   9.565   6.082
  975POPE   C3A12010   9.568   9.610   5.680
  975POPE   C4A12011   9.526   9.289   5.301
  975POPE   C1B12012   9.354   9.570   6.422
  975POPE   C2B12013   9.252   9.490   6.062
  975POPE   C3B12014   9.081   9.509   5.651
  975POPE   C4B12015   8.995   9.236   5.272
  976POPE   NH312016  27.466  27.554   6.920
  976POPE   PO412017  27.210  27.792   6.898
  976POPE   GL112018  27.163  27.881   6.474
  976POPE   GL212019  27.322  27.587   6.479
  976POPE   C1A12020  27.179  27.805   6.081
  976POPE   D2A12021  27.150  27.766   5.580
  976POPE   C3A12022  26.882  27.551   5.186
  976POPE   C4A12023  26.625  27.171   5.330
  976POPE   C1B12024  27.243  27.397   6.161
  976POPE   C2B12025  27.192  27.211   5.798
  976POPE   C3B12026  27.124  26.991   5.399
  976POPE   C4B12027  27.151  27.179   4.924
  977POPE   NH312028  33.966  14.764   8.583
  977POPE   PO412029  33.848  14.685   8.260
  977POPE   GL112030  33.794  14.871   7.915
  977POPE   GL212031  34.015  15.147   7.909
  977POPE   C1A12032  33.837  14.511   7.562
  977POPE   D2A12033  33.926  14.371   7.133
  977POPE   C3A12034  33.772  14.382   6.651
  977POPE   C4A12035  33.808  14.574   6.199
  977POPE   C1B12036  34.133  15.087   7.577
  977POPE   C2B12037  34.201  14.841   7.269
  977POPE   C3B12038  34.010  14.815   6.822
  977POPE   C4B12039  34.052  15.046   6.326
  978POPE   NH312040  25.777  17.870   7.989
  978POPE   PO412041  25.848  17.815   7.662
  978POPE   GL112042  25.644  17.642   7.384
  978POPE   GL212043  25.441  17.639   7.238
  978POPE   C1A12044  25.894  17.634   7.035
  978POPE   D2A12045  26.140  17.800   6.669
  978POPE   C3A12046  26.280  17.587   6.254
  978POPE   C4A12047  26.221  17.358   5.913
  978POPE   C1B12048  25.448  17.572   6.865
  978POPE   C2B12049  25.675  17.590   6.544
  978POPE   C3B12050  25.833  17.654   6.090
  978POPE   C4B12051  25.939  17.631   5.615
  979POPE   NH312052   0.470  35.184   7.484
  979POPE   PO412053   0.601  34.903   7.377
  979POPE   GL112054   0.840  34.853   7.070
  979POPE   GL212055   0.830  34.713   6.871
  979POPE   C1A12056   1.240  35.026   6.936
  979POPE   D2A12057   1.623  34.850   6.583
  979POPE   C3A12058   1.850  34.919   6.118
  979POPE   C4A12059   1.897  34.980   5.630
  979POPE   C1B12060   1.078  34.702   6.593
  979POPE   C2B12061   1.262  34.785   6.214
  979POPE   C3B12062   1.495  34.695   5.785
  979POPE   C4B12063   1.323  34.647   5.318
  980POPE   NH312064  19.924  27.266   7.474
  980POPE   PO412065  19.636  27.159   7.595
  980POPE   GL112066  19.532  27.234   7.146
  980POPE   GL212067  19.686  27.548   7.163
  980POPE   C1A12068  19.302  27.173   6.781
  980POPE   D2A12069  19.279  27.218   6.299
  980POPE   C3A12070  19.596  27.088   6.000
  980POPE   C4A12071  19.690  26.741   5.570
  980POPE   C1B12072  19.478  27.723   6.899
  980POPE   C2B12073  19.234  27.754   6.588
  980POPE   C3B12074  19.025  27.669   6.134
  980POPE   C4B12075  18.971  27.453   5.688
  981POPE   NH312076  21.084  24.570   8.167
  981POPE   PO412077  21.030  24.267   7.976
  981POPE   GL112078  21.145  24.156   7.529
  981POPE   GL212079  21.412  24.298   7.531
  981POPE   C1A12080  21.213  24.223   7.092
  981POPE   D2A12081  21.231  24.464   6.634
  981POPE   C3A12082  21.112  24.716   6.175
  981POPE   C4A12083  21.223  24.848   5.714
  981POPE   C1B12084  21.362  24.620   7.320
  981POPE   C2B12085  21.289  24.843   6.967
  981POPE   C3B12086  20.947  25.025   6.710
  981POPE   C4B12087  20.497  24.896   6.575
  982POPE   NH312088  13.387  14.145   7.348
  982POPE   PO412089  13.290  13.812   7.385
  982POPE   GL112090  12.937  13.682   7.057
  982POPE   GL212091  12.935  13.928   6.941
  982POPE   C1A12092  12.887  13.276   6.764
  982POPE   D2A12093  12.802  13.431   6.268
  982POPE   C3A12094  12.563  13.297   5.874
  982POPE   C4A12095  12.435  12.848   5.880
  982POPE   C1B12096  12.926  13.919   6.560
  982POPE   C2B12097  13.018  13.893   6.164
  982POPE   C3B12098  12.921  13.654   5.852
  982POPE   C4B12099  12.902  13.337   5.475
  983POPE   NH312100  21.574  13.339   7.280
  983POPE   PO412101  21.556  13.645   7.442
  983POPE   GL112102  21.423  13.857   7.045
  983POPE   GL212103  21.511  13.635   6.936
  983POPE   C1A12104  21.038  13.923   6.826
  983POPE   D2A12105  20.567  13.782   6.726
  983POPE   C3A12106  20.346  13.660   6.347
  983POPE   C4A12107  20.304  13.453   5.865
  983POPE   C1B12108  21.750  13.591   6.687
  983POPE   C2B12109  21.952  13.826   6.428
  983POPE   C3B12110  22.088  14.141   6.123
  983POPE   C4B12111  22.476  14.326   5.939
  984POPE   NH312112  16.520  22.658   7.799
  984POPE   PO412113  16.303  22.918   7.642
  984POPE   GL112114  16.095  22.836   7.234
  984POPE   GL212115  16.308  22.555   7.258
  984POPE   C1A12116  16.094  23.182   6.945
  984POPE   D2A12117  15.860  23.154   6.426
  984POPE   C3A12118  15.988  23.042   6.024
  984POPE   C4A12119  15.932  22.927   5.579
  984POPE   C1B12120  16.396  22.689   6.909
  984POPE   C2B12121  16.560  22.847   6.550
  984POPE   C3B12122  16.662  23.032   6.043
  984POPE   C4B12123  16.780  23.368   5.720
  985POPE   NH312124  34.736  12.712   8.057
  985POPE   PO412125  34.546  12.854   7.789
  985POPE   GL112126  34.729  12.933   7.462
  985POPE   GL212127  34.894  12.708   7.372
  985POPE   C1A12128  34.575  12.893   7.043
  985POPE   D2A12129  34.535  13.298   6.767
  985POPE   C3A12130  34.682  13.286   6.287
  985POPE   C4A12131  34.769  13.489   5.839
  985POPE   C1B12132  35.055  12.730   7.010
  985POPE   C2B12133  34.972  12.706   6.615
  985POPE   C3B12134  34.799  12.777   6.259
  985POPE   C4B12135  34.678  12.981   5.834
  986POPE   NH312136  33.073  12.734   7.481
  986POPE   PO412137  33.268  12.501   7.272
  986POPE   GL112138  33.313  12.601   6.816
  986POPE   GL212139  33.492  12.324   6.803
  986POPE   C1A12140  33.542  12.808   6.436
  986POPE   D2A12141  33.688  13.072   6.083
  986POPE   C3A12142  33.575  13.400   5.858
  986POPE   C4A12143  33.393  13.646   5.526
  986POPE   C1B12144  33.786  12.393   6.616
  986POPE   C2B12145  33.779  12.470   6.199
  986POPE   C3B12146  33.844  12.543   5.745
  986POPE   C4B12147  33.818  12.686   5.276
  987POPE   NH312148  10.564  24.270   6.864
  987POPE   PO412149  10.224  24.142   6.734
  987POPE   GL112150  10.169  23.928   6.396
  987POPE   GL212151  10.338  24.046   6.249
  987POPE   C1A12152   9.848  24.001   6.089
  987POPE   D2A12153   9.685  24.036   5.674
  987POPE   C3A12154   9.801  24.181   5.254
  987POPE   C4A12155   9.769  24.113   4.799
  987POPE   C1B12156  10.278  23.913   5.853
  987POPE   C2B12157  10.252  23.926   5.407
  987POPE   C3B12158  10.323  23.995   4.958
  987POPE   C4B12159  10.241  24.294   4.520
  988POPE   NH312160  11.894   5.617   7.474
  988POPE   PO412161  11.949   5.265   7.497
  988POPE   GL112162  12.110   5.252   7.189
  988POPE   GL212163  11.941   5.494   7.078
  988POPE   C1A12164  12.401   5.141   6.855
  988POPE   D2A12165  12.717   4.875   6.618
  988POPE   C3A12166  12.885   4.894   6.229
  988POPE   C4A12167  13.155   4.816   5.763
  988POPE   C1B12168  11.926   5.581   6.749
  988POPE   C2B12169  11.956   5.514   6.338
  988POPE   C3B12170  11.927   5.169   6.034
  988POPE   C4B12171  11.669   4.720   5.917
  989POPE   NH312172  31.505  20.808   7.196
  989POPE   PO412173  31.351  20.516   7.192
  989POPE   GL112174  31.288  20.653   6.826
  989POPE   GL212175  31.684  20.593   6.772
  989POPE   C1A12176  31.268  20.866   6.458
  989POPE   D2A12177  31.627  21.053   6.164
  989POPE   C3A12178  31.734  21.316   5.763
  989POPE   C4A12179  32.171  21.199   5.559
  989POPE   C1B12180  31.634  20.608   6.401
  989POPE   C2B12181  31.498  20.537   6.008
  989POPE   C3B12182  31.191  20.527   5.587
  989POPE   C4B12183  30.764  20.617   5.517
  990POPE   NH312184  35.886  11.613   7.736
  990POPE   PO412185  35.809  11.933   7.682
  990POPE   GL112186  36.032  11.956   7.358
  990POPE   GL212187  35.984  12.233   7.352
  990POPE   C1A12188  36.113  11.754   6.993
  990POPE   D2A12189  36.296  11.673   6.501
  990POPE   C3A12190  36.352  11.926   6.084
  990POPE   C4A12191  36.726  11.983   5.743
  990POPE   C1B12192  35.924  12.242   7.030
  990POPE   C2B12193  35.603  12.216   6.732
  990POPE   C3B12194  35.404  11.916   6.354
  990POPE   C4B12195  35.289  11.533   6.106
  991POPE   NH312196   1.521   4.195   7.609
  991POPE   PO412197   1.278   4.046   7.451
  991POPE   GL112198   1.247   4.038   7.031
  991POPE   GL212199   1.064   4.264   7.122
  991POPE   C1A12200   1.342   4.169   6.612
  991POPE   D2A12201   1.180   4.136   6.168
  991POPE   C3A12202   1.022   4.059   5.707
  991POPE   C4A12203   0.998   4.234   5.263
  991POPE   C1B12204   0.846   4.404   6.837
  991POPE   C2B12205   0.842   4.418   6.465
  991POPE   C3B12206   0.788   4.396   5.995
  991POPE   C4B12207   0.352   4.392   5.796
  992POPE   NH312208   1.016   6.179   7.003
  992POPE   PO412209   1.166   6.352   7.239
  992POPE   GL112210   1.246   6.745   7.034
  992POPE   GL212211   1.400   6.463   6.840
  992POPE   C1A12212   1.257   6.908   6.625
  992POPE   D2A12213   1.245   7.079   6.124
  992POPE   C3A12214   1.394   6.951   5.721
  992POPE   C4A12215   1.173   7.245   5.338
  992POPE   C1B12216   1.528   6.457   6.459
  992POPE   C2B12217   1.522   6.504   6.003
  992POPE   C3B12218   1.463   6.394   5.539
  992POPE   C4B12219   1.230   6.668   5.276
  993POPE   NH312220  20.012  10.174   7.747
  993POPE   PO412221  20.203  10.010   7.471
  993POPE   GL112222  20.161  10.157   7.039
  993POPE   GL212223  20.407  10.156   6.978
  993POPE   C1A12224  19.998  10.080   6.660
  993POPE   D2A12225  19.714  10.061   6.227
  993POPE   C3A12226  19.719  10.030   5.749
  993POPE   C4A12227  19.982  10.356   5.524
  993POPE   C1B12228  20.615  10.144   6.671
  993POPE   C2B12229  20.763   9.961   6.361
  993POPE   C3B12230  20.630   9.677   6.044
  993POPE   C4B12231  20.451   9.372   5.728
  994POPE   NH312232  11.322  23.922   7.007
  994POPE   PO412233  11.036  24.077   6.857
  994POPE   GL112234  10.982  24.088   6.431
  994POPE   GL212235  10.724  24.177   6.417
  994POPE   C1A12236  11.235  23.940   6.062
  994POPE   D2A12237  11.316  23.785   5.578
  994POPE   C3A12238  11.459  23.474   5.207
  994POPE   C4A12239  11.922  23.446   4.979
  994POPE   C1B12240  10.682  24.040   6.040
  994POPE   C2B12241  10.706  23.883   5.645
  994POPE   C3B12242  10.912  23.676   5.317
  994POPE   C4B12243  11.025  23.363   4.927
  995POPE   NH312244   3.564  23.301   7.637
  995POPE   PO412245   3.493  23.691   7.654
  995POPE   GL112246   3.454  23.807   7.208
  995POPE   GL212247   3.587  23.569   7.140
  995POPE   C1A12248   3.478  24.133   6.995
  995POPE   D2A12249   3.633  24.383   6.568
  995POPE   C3A12250   3.564  24.888   6.655
  995POPE   C4A12251   3.212  25.067   6.939
  995POPE   C1B12252   3.487  23.406   6.785
  995POPE   C2B12253   3.430  23.445   6.387
  995POPE   C3B12254   3.450  23.589   5.933
  995POPE   C4B12255   3.450  23.668   5.411
  996POPE   NH312256   3.081   0.901   7.602
  996POPE   PO412257   3.222   0.807   7.318
  996POPE   GL112258   3.019   1.040   7.102
  996POPE   GL212259   3.121   0.797   6.853
  996POPE   C1A12260   2.790   1.201   6.775
  996POPE   D2A12261   2.785   1.642   6.714
  996POPE   C3A12262   2.884   1.638   6.273
  996POPE   C4A12263   2.962   1.883   5.850
  996POPE   C1B12264   2.946   0.854   6.531
  996POPE   C2B12265   2.912   1.032   6.135
  996POPE   C3B12266   2.786   1.323   5.792
  996POPE   C4B12267   2.698   1.429   5.347
  997POPE   NH312268  31.513  27.755   7.294
  997POPE   PO412269  31.375  27.454   7.238
  997POPE   GL112270  31.095  27.467   7.028
  997POPE   GL212271  31.103  27.492   6.739
  997POPE   C1A12272  30.858  27.110   6.906
  997POPE   D2A12273  30.572  26.888   6.577
  997POPE   C3A12274  30.637  27.153   6.180
  997POPE   C4A12275  30.613  27.567   5.828
  997POPE   C1B12276  31.047  27.257   6.460
  997POPE   C2B12277  31.104  27.199   5.982
  997POPE   C3B12278  31.145  27.501   5.606
  997POPE   C4B12279  30.790  27.728   5.360
  998POPE   NH312280  13.828  26.632   7.090
  998POPE   PO412281  13.614  26.340   7.210
  998POPE   GL112282  13.357  26.209   6.963
  998POPE   GL212283  13.108  26.422   6.988
  998POPE   C1A12284  13.504  25.969   6.663
  998POPE   D2A12285  13.581  26.091   6.183
  998POPE   C3A12286  13.510  26.142   5.728
  998POPE   C4A12287  13.475  26.190   5.278
  998POPE   C1B12288  12.998  26.451   6.669
  998POPE   C2B12289  12.916  26.592   6.292
  998POPE   C3B12290  12.805  26.792   5.868
  998POPE   C4B12291  12.940  26.957   5.444
  999POPE   NH312292   0.175  28.443   7.374
  999POPE   PO412293   0.505  28.477   7.297
  999POPE   GL112294   0.662  28.431   6.856
  999POPE   GL212295   0.635  28.680   6.856
  999POPE   C1A12296   0.552  28.209   6.534
  999POPE   D2A12297   0.502  28.038   6.082
  999POPE   C3A12298   0.436  27.971   5.630
  999POPE   C4A12299   0.375  27.881   5.132
  999POPE   C1B12300   0.509  28.645   6.535
  999POPE   C2B12301   0.581  28.581   6.131
  999POPE   C3B12302   0.566  28.471   5.650
  999POPE   C4B12303   0.575  28.330   5.199
 1000POPE   NH312304   5.361   8.664   7.362
 1000POPE   PO412305   5.644   8.467   7.373
 1000POPE   GL112306   5.861   8.445   7.014
 1000POPE   GL212307   5.852   8.190   7.005
 1000POPE   C1A12308   6.090   8.664   6.696
 1000POPE   D2A12309   6.037   9.152   6.454
 1000POPE   C3A12310   6.351   9.248   6.252
 1000POPE   C4A12311   6.481   9.522   5.863
 1000POPE   C1B12312   5.960   7.992   6.740
 1000POPE   C2B12313   6.027   7.848   6.354
 1000POPE   C3B12314   5.821   7.671   5.957
 1000POPE   C4B12315   5.468   7.850   5.575
 1001DLPE   NH312316   0.080  26.787   7.407
 1001DLPE   PO412317   0.228  27.092   7.548
 1001DLPE   GL112318   0.504  27.142   7.205
 1001DLPE   GL212319   0.507  26.827   7.181
 1001DLPE   C1A12320   0.759  27.334   6.851
 1001DLPE   D2A12321   0.746  27.265   6.410
 1001DLPE   D3A12322   0.831  27.220   6.003
 1001DLPE   C4A12323   0.445  27.198   5.716
 1001DLPE   C1B12324   0.641  26.785   6.744
 1001DLPE   D2B12325   0.907  26.809   6.373
 1001DLPE   D3B12326   1.282  27.090   6.263
 1001DLPE   C4B12327   1.699  27.004   6.575
 1002DLPE   NH312328  21.062   7.111   7.416
 1002DLPE   PO412329  21.361   6.999   7.311
 1002DLPE   GL112330  21.301   6.851   6.940
 1002DLPE   GL212331  21.055   6.902   6.959
 1002DLPE   C1A12332  21.502   6.866   6.510
 1002DLPE   D2A12333  21.835   7.019   6.190
 1002DLPE   D3A12334  22.202   7.266   6.194
 1002DLPE   C4A12335  22.681   7.456   6.148
 1002DLPE   C1B12336  20.920   6.813   6.545
 1002DLPE   D2B12337  21.118   6.826   6.060
 1002DLPE   D3B12338  21.468   6.885   5.758
 1002DLPE   C4B12339  21.924   7.065   5.728
 1003DLPE   NH312340  26.211  20.780   7.105
 1003DLPE   PO412341  25.885  20.814   7.125
 1003DLPE   GL112342  25.789  20.718   6.823
 1003DLPE   GL212343  25.553  20.698   6.896
 1003DLPE   C1A12344  25.924  20.987   6.444
 1003DLPE   D2A12345  25.846  21.116   5.953
 1003DLPE   D3A12346  26.167  21.178   5.727
 1003DLPE   C4A12347  25.911  21.512   5.463
 1003DLPE   C1B12348  25.213  20.372   6.909
 1003DLPE   D2B12349  25.253  19.938   6.686
 1003DLPE   D3B12350  24.944  20.041   6.443
 1003DLPE   C4B12351  24.822  20.043   5.933
 1004DLPE   NH312352  19.390   7.524   7.452
 1004DLPE   PO412353  19.352   7.742   7.725
 1004DLPE   GL112354  19.280   8.019   7.448
 1004DLPE   GL212355  19.389   8.004   7.280
 1004DLPE   C1A12356  18.953   8.216   7.180
 1004DLPE   D2A12357  18.809   7.915   6.769
 1004DLPE   D3A12358  18.739   8.132   6.385
 1004DLPE   C4A12359  18.865   8.220   5.943
 1004DLPE   C1B12360  19.302   7.704   6.962
 1004DLPE   D2B12361  19.358   7.376   6.551
 1004DLPE   D3B12362  19.437   7.570   6.140
 1004DLPE   C4B12363  19.251   7.241   5.903
 1005DLPE   NH312364  33.870  18.400   8.052
 1005DLPE   PO412365  33.975  18.676   7.817
 1005DLPE   GL112366  34.021  18.580   7.452
 1005DLPE   GL212367  34.234  18.765   7.409
 1005DLPE   C1A12368  33.900  18.471   7.059
 1005DLPE   D2A12369  33.832  18.313   6.593
 1005DLPE   D3A12370  33.807  18.199   6.165
 1005DLPE   C4A12371  34.238  18.398   5.924
 1005DLPE   C1B12372  34.415  18.866   6.995
 1005DLPE   D2B12373  34.607  18.994   6.510
 1005DLPE   D3B12374  34.267  18.939   6.180
 1005DLPE   C4B12375  33.932  19.300   6.053
 1006DLPE   NH312376   9.534  23.534   6.994
 1006DLPE   PO412377   9.323  23.496   6.721
 1006DLPE   GL112378   9.656  23.475   6.513
 1006DLPE   GL212379   9.691  23.739   6.411
 1006DLPE   C1A12380   9.591  23.182   6.172
 1006DLPE   D2A12381   9.629  23.073   5.657
 1006DLPE   D3A12382   9.628  22.876   5.272
 1006DLPE   C4A12383   9.917  23.158   5.111
 1006DLPE   C1B12384   9.508  23.618   5.926
 1006DLPE   D2B12385   9.446  23.552   5.475
 1006DLPE   D3B12386   9.452  23.897   5.271
 1006DLPE   C4B12387   9.145  23.784   4.882
 1007DLPE   NH312388   1.351  25.303   7.565
 1007DLPE   PO412389   1.263  25.607   7.466
 1007DLPE   GL112390   1.441  25.707   7.126
 1007DLPE   GL212391   1.525  25.459   7.183
 1007DLPE   C1A12392   1.744  25.730   6.684
 1007DLPE   D2A12393   2.193  25.699   6.373
 1007DLPE   D3A12394   2.013  25.952   6.169
 1007DLPE   C4A12395   1.858  26.294   5.867
 1007DLPE   C1B12396   1.378  25.399   6.743
 1007DLPE   D2B12397   1.743  25.089   6.579
 1007DLPE   D3B12398   1.975  25.227   6.232
 1007DLPE   C4B12399   1.903  25.540   5.922
 1008DLPE   NH312400  24.592   8.808   7.543
 1008DLPE   PO412401  24.431   9.062   7.381
 1008DLPE   GL112402  24.418   9.155   6.965
 1008DLPE   GL212403  24.063   9.111   6.962
 1008DLPE   C1A12404  24.706   9.123   6.640
 1008DLPE   D2A12405  24.695   9.364   6.252
 1008DLPE   D3A12406  24.591   9.731   5.948
 1008DLPE   C4A12407  24.146   9.876   5.785
 1008DLPE   C1B12408  24.184   9.152   6.565
 1008DLPE   D2B12409  24.214   9.297   6.107
 1008DLPE   D3B12410  23.900   9.434   5.834
 1008DLPE   C4B12411  23.549   9.704   5.903
 1009DLPE   NH312412  29.129  23.612   7.426
 1009DLPE   PO412413  29.462  23.664   7.389
 1009DLPE   GL112414  29.539  23.646   6.963
 1009DLPE   GL212415  29.499  23.944   6.950
 1009DLPE   C1A12416  29.495  23.289   6.646
 1009DLPE   D2A12417  29.752  23.010   6.354
 1009DLPE   D3A12418  29.508  23.395   6.204
 1009DLPE   C4A12419  29.572  23.687   5.759
 1009DLPE   C1B12420  29.796  24.267   6.835
 1009DLPE   D2B12421  29.912  24.477   6.383
 1009DLPE   D3B12422  29.779  24.080   6.069
 1009DLPE   C4B12423  29.851  24.147   5.588
 1010DLPE   NH312424  32.552  20.173   7.747
 1010DLPE   PO412425  32.202  20.182   7.717
 1010DLPE   GL112426  32.075  20.083   7.352
 1010DLPE   GL212427  32.282  20.002   7.178
 1010DLPE   C1A12428  31.821  19.912   7.115
 1010DLPE   D2A12429  31.605  20.154   6.755
 1010DLPE   D3A12430  31.286  20.275   6.477
 1010DLPE   C4A12431  31.240  20.151   6.001
 1010DLPE   C1B12432  32.581  20.126   6.895
 1010DLPE   D2B12433  32.908  19.898   6.624
 1010DLPE   D3B12434  33.054  19.848   6.186
 1010DLPE   C4B12435  33.481  20.047   6.067
 1011DLPE   NH312436  13.012  19.760   7.373
 1011DLPE   PO412437  13.179  20.086   7.484
 1011DLPE   GL112438  13.177  20.089   7.072
 1011DLPE   GL212439  12.904  20.113   6.998
 1011DLPE   C1A12440  13.476  20.164   6.741
 1011DLPE   D2A12441  13.868  19.976   6.464
 1011DLPE   D3A12442  14.229  19.813   6.642
 1011DLPE   C4A12443  13.919  19.403   6.695
 1011DLPE   C1B12444  12.986  20.321   6.633
 1011DLPE   D2B12445  13.253  20.340   6.273
 1011DLPE   D3B12446  13.424  20.709   5.962
 1011DLPE   C4B12447  13.866  20.676   5.760
 1012DLPE   NH312448   6.443  34.023   7.417
 1012DLPE   PO412449   6.383  34.319   7.406
 1012DLPE   GL112450   6.312  34.401   7.019
 1012DLPE   GL212451   5.979  34.528   7.066
 1012DLPE   C1A12452   6.366  34.306   6.558
 1012DLPE   D2A12453   6.431  34.155   6.102
 1012DLPE   D3A12454   6.258  34.296   5.762
 1012DLPE   C4A12455   5.953  34.496   5.423
 1012DLPE   C1B12456   5.820  34.577   6.639
 1012DLPE   D2B12457   5.673  34.838   6.262
 1012DLPE   D3B12458   5.419  34.640   5.999
 1012DLPE   C4B12459   5.410  34.615   5.530
 1013DLPE   NH312460  21.892  28.217   7.513
 1013DLPE   PO412461  21.603  28.100   7.406
 1013DLPE   GL112462  21.537  27.995   7.045
 1013DLPE   GL212463  21.509  27.687   7.075
 1013DLPE   C1A12464  21.202  28.055   6.728
 1013DLPE   D2A12465  20.917  28.150   6.391
 1013DLPE   D3A12466  21.022  28.471   6.108
 1013DLPE   C4A12467  20.784  28.793   6.323
 1013DLPE   C1B12468  21.370  27.503   6.677
 1013DLPE   D2B12469  21.225  27.684   6.229
 1013DLPE   D3B12470  21.214  27.482   5.837
 1013DLPE   C4B12471  20.811  27.347   5.546
 1014DLPE   NH312472  21.704  25.153   8.006
 1014DLPE   PO412473  21.561  25.101   7.668
 1014DLPE   GL112474  21.722  25.075   7.324
 1014DLPE   GL212475  21.624  25.369   7.339
 1014DLPE   C1A12476  21.758  25.039   6.914
 1014DLPE   D2A12477  21.640  24.764   6.556
 1014DLPE   D3A12478  21.429  25.138   6.342
 1014DLPE   C4A12479  21.457  25.278   5.897
 1014DLPE   C1B12480  21.360  25.336   7.067
 1014DLPE   D2B12481  20.918  25.518   6.909
 1014DLPE   D3B12482  21.092  25.475   6.531
 1014DLPE   C4B12483  20.911  25.211   6.185
 1015DLPE   NH312484   2.162  13.729   8.803
 1015DLPE   PO412485   2.023  13.684   8.506
 1015DLPE   GL112486   1.938  13.855   8.048
 1015DLPE   GL212487   1.836  14.039   8.219
 1015DLPE   C1A12488   2.159  13.942   7.669
 1015DLPE   D2A12489   2.306  13.783   7.278
 1015DLPE   D3A12490   2.266  13.699   6.835
 1015DLPE   C4A12491   1.950  13.601   6.489
 1015DLPE   C1B12492   1.736  14.225   7.771
 1015DLPE   D2B12493   1.666  14.728   7.610
 1015DLPE   D3B12494   1.453  14.418   7.354
 1015DLPE   C4B12495   1.539  14.375   6.867
 1016DLPE   NH312496  21.521  11.908   7.541
 1016DLPE   PO412497  21.512  11.559   7.673
 1016DLPE   GL112498  21.365  11.313   7.364
 1016DLPE   GL212499  21.084  11.470   7.403
 1016DLPE   C1A12500  21.372  11.328   6.961
 1016DLPE   D2A12501  21.636  11.625   6.690
 1016DLPE   D3A12502  21.497  11.571   6.322
 1016DLPE   C4A12503  21.157  11.348   6.521
 1016DLPE   C1B12504  20.842  11.464   6.980
 1016DLPE   D2B12505  20.584  11.454   6.543
 1016DLPE   D3B12506  20.640  11.423   6.069
 1016DLPE   C4B12507  21.135  11.450   6.026
 1017DLPE   NH312508  34.928  20.040   7.641
 1017DLPE   PO412509  34.704  20.306   7.717
 1017DLPE   GL112510  34.700  20.295   7.272
 1017DLPE   GL212511  34.993  20.325   7.263
 1017DLPE   C1A12512  34.369  20.075   7.039
 1017DLPE   D2A12513  34.148  19.619   6.904
 1017DLPE   D3A12514  34.202  19.313   6.601
 1017DLPE   C4A12515  34.501  19.426   6.275
 1017DLPE   C1B12516  34.929  20.383   6.774
 1017DLPE   D2B12517  35.047  20.478   6.302
 1017DLPE   D3B12518  35.404  20.277   6.104
 1017DLPE   C4B12519  35.471  20.083   5.640
 1018DLPE   NH312520  21.701  12.855   7.521
 1018DLPE   PO412521  21.694  12.856   7.184
 1018DLPE   GL112522  21.530  12.953   6.917
 1018DLPE   GL212523  21.482  13.153   6.808
 1018DLPE   C1A12524  21.628  12.637   6.593
 1018DLPE   D2A12525  21.803  12.821   6.141
 1018DLPE   D3A12526  22.280  12.777   6.009
 1018DLPE   C4A12527  22.551  12.622   5.650
 1018DLPE   C1B12528  21.375  13.048   6.339
 1018DLPE   D2B12529  21.174  12.935   5.850
 1018DLPE   D3B12530  20.932  12.816   5.499
 1018DLPE   C4B12531  20.800  13.036   5.085
 1019DLPE   NH312532  28.507  34.110   7.250
 1019DLPE   PO412533  28.793  34.076   7.038
 1019DLPE   GL112534  28.953  34.270   6.678
 1019DLPE   GL212535  29.134  34.393   6.799
 1019DLPE   C1A12536  28.834  34.307   6.262
 1019DLPE   D2A12537  28.587  34.127   5.884
 1019DLPE   D3A12538  28.793  34.358   5.573
 1019DLPE   C4A12539  28.917  34.377   5.083
 1019DLPE   C1B12540  29.253  34.576   6.448
 1019DLPE   D2B12541  29.239  34.523   5.930
 1019DLPE   D3B12542  29.439  34.279   5.552
 1019DLPE   C4B12543  29.590  33.849   5.691
 1020DLPE   NH312544  32.622  10.896   7.445
 1020DLPE   PO412545  32.651  10.893   7.109
 1020DLPE   GL112546  32.574  11.162   6.804
 1020DLPE   GL212547  32.263  11.148   6.741
 1020DLPE   C1A12548  32.527  11.064   6.348
 1020DLPE   D2A12549  32.308  10.907   5.950
 1020DLPE   D3A12550  32.193  10.596   5.592
 1020DLPE   C4A12551  32.246  10.609   5.135
 1020DLPE   C1B12552  31.947  11.480   6.670
 1020DLPE   D2B12553  31.554  11.419   6.408
 1020DLPE   D3B12554  31.530  11.644   6.023
 1020DLPE   C4B12555  31.740  11.694   5.570
 1021DLPE   NH312556  35.552  19.229   7.610
 1021DLPE   PO412557  35.495  18.875   7.779
 1021DLPE   GL112558  35.114  18.743   7.594
 1021DLPE   GL212559  35.187  18.995   7.434
 1021DLPE   C1A12560  35.137  18.289   7.506
 1021DLPE   D2A12561  35.060  17.780   7.514
 1021DLPE   D3A12562  34.656  17.549   7.477
 1021DLPE   C4A12563  34.334  17.503   7.123
 1021DLPE   C1B12564  35.299  18.683   7.177
 1021DLPE   D2B12565  35.486  18.481   6.775
 1021DLPE   D3B12566  35.518  18.325   6.373
 1021DLPE   C4B12567  35.137  18.247   6.067
 1022DLPE   NH312568   6.939   1.192   7.541
 1022DLPE   PO412569   7.057   0.884   7.486
 1022DLPE   GL112570   7.152   0.933   7.070
 1022DLPE   GL212571   7.355   0.743   7.201
 1022DLPE   C1A12572   7.511   1.094   6.880
 1022DLPE   D2A12573   7.456   1.074   6.392
 1022DLPE   D3A12574   7.368   1.129   5.958
 1022DLPE   C4A12575   7.306   1.472   5.591
 1022DLPE   C1B12576   7.279   0.527   6.880
 1022DLPE   D2B12577   7.121   0.155   6.514
 1022DLPE   D3B12578   6.918   0.202   6.093
 1022DLPE   C4B12579   7.350   0.278   6.013
 1023DLPE   NH312580  24.327  17.815   7.649
 1023DLPE   PO412581  24.146  17.552   7.570
 1023DLPE   GL112582  24.066  17.665   7.266
 1023DLPE   GL212583  23.778  17.580   7.251
 1023DLPE   C1A12584  24.082  17.776   6.838
 1023DLPE   D2A12585  24.203  17.933   6.354
 1023DLPE   D3A12586  23.973  17.945   5.950
 1023DLPE   C4A12587  23.596  18.242   5.794
 1023DLPE   C1B12588  23.576  17.363   6.998
 1023DLPE   D2B12589  23.493  17.347   6.478
 1023DLPE   D3B12590  23.851  17.593   6.411
 1023DLPE   C4B12591  23.990  17.428   5.934
 1024DLPE   NH312592  35.751  11.114   7.591
 1024DLPE   PO412593  36.022  10.906   7.473
 1024DLPE   GL112594  36.262  10.812   7.056
 1024DLPE   GL212595  36.062  11.091   7.018
 1024DLPE   C1A12596  36.478  11.033   6.755
 1024DLPE   D2A12597  36.628  11.230   6.335
 1024DLPE   D3A12598  37.015  11.440   6.271
 1024DLPE   C4A12599  36.702  11.395   5.858
 1024DLPE   C1B12600  36.001  11.233   6.614
 1024DLPE   D2B12601  36.143  11.185   6.068
 1024DLPE   D3B12602  36.232  11.424   5.693
 1024DLPE   C4B12603  36.030  11.810   5.364
 1025DLPE   NH312604   3.681   7.169   7.681
 1025DLPE   PO412605   3.344   7.105   7.685
 1025DLPE   GL112606   3.250   7.066   7.345
 1025DLPE   GL212607   3.508   6.983   7.160
 1025DLPE   C1A12608   2.984   6.933   6.984
 1025DLPE   D2A12609   2.876   6.826   6.520
 1025DLPE   D3A12610   3.155   6.476   6.330
 1025DLPE   C4A12611   3.139   6.620   5.915
 1025DLPE   C1B12612   3.530   6.962   6.704
 1025DLPE   D2B12613   3.511   6.809   6.210
 1025DLPE   D3B12614   3.330   7.135   5.924
 1025DLPE   C4B12615   3.356   7.242   6.373
 1026DLPE   NH312616  32.758   9.647   7.042
 1026DLPE   PO412617  33.100   9.644   7.191
 1026DLPE   GL112618  33.052   9.840   6.745
 1026DLPE   GL212619  33.235   9.645   6.619
 1026DLPE   C1A12620  33.221  10.229   6.577
 1026DLPE   D2A12621  32.967  10.422   6.190
 1026DLPE   D3A12622  32.600  10.461   5.848
 1026DLPE   C4A12623  32.637  10.040   5.578
 1026DLPE   C1B12624  33.099   9.826   6.264
 1026DLPE   D2B12625  33.175   9.911   5.803
 1026DLPE   D3B12626  33.134  10.290   5.574
 1026DLPE   C4B12627  33.528  10.268   5.219
 1027DLPE   NH312628   7.698  14.569   7.327
 1027DLPE   PO412629   7.430  14.595   7.487
 1027DLPE   GL112630   7.063  14.872   7.354
 1027DLPE   GL212631   7.260  14.738   7.177
 1027DLPE   C1A12632   7.019  15.261   7.066
 1027DLPE   D2A12633   6.940  15.225   6.575
 1027DLPE   D3A12634   6.946  14.862   6.400
 1027DLPE   C4A12635   7.177  14.881   5.952
 1027DLPE   C1B12636   7.209  14.890   6.781
 1027DLPE   D2B12637   7.423  14.685   6.351
 1027DLPE   D3B12638   7.767  14.409   6.356
 1027DLPE   C4B12639   7.860  14.313   5.975
 1028DLPE   NH312640   1.233   5.851   7.340
 1028DLPE   PO412641   1.306   5.510   7.331
 1028DLPE   GL112642   1.259   5.736   6.878
 1028DLPE   GL212643   1.480   5.590   6.829
 1028DLPE   C1A12644   1.031   5.823   6.532
 1028DLPE   D2A12645   1.015   5.716   5.992
 1028DLPE   D3A12646   1.228   6.000   5.717
 1028DLPE   C4A12647   1.002   6.200   5.367
 1028DLPE   C1B12648   1.514   5.570   6.468
 1028DLPE   D2B12649   1.729   5.512   6.041
 1028DLPE   D3B12650   2.176   5.375   6.054
 1028DLPE   C4B12651   2.314   5.127   5.726
 1029DLPE   NH312652   6.075   8.214   7.409
 1029DLPE   PO412653   6.187   8.572   7.332
 1029DLPE   GL112654   6.505   8.752   7.248
 1029DLPE   GL212655   6.530   9.026   7.266
 1029DLPE   C1A12656   6.695   8.607   6.895
 1029DLPE   D2A12657   6.966   8.785   6.546
 1029DLPE   D3A12658   7.042   8.676   6.125
 1029DLPE   C4A12659   6.889   8.687   5.687
 1029DLPE   C1B12660   6.791   9.137   6.907
 1029DLPE   D2B12661   6.770   9.297   6.478
 1029DLPE   D3B12662   6.776   9.132   6.025
 1029DLPE   C4B12663   6.835   9.238   5.536
 1030DLPE   NH312664  12.884  12.942   8.051
 1030DLPE   PO412665  13.024  13.040   7.738
 1030DLPE   GL112666  12.755  13.140   7.431
 1030DLPE   GL212667  12.719  12.950   7.251
 1030DLPE   C1A12668  12.549  13.418   7.119
 1030DLPE   D2A12669  12.586  13.700   6.722
 1030DLPE   D3A12670  12.549  14.076   6.532
 1030DLPE   C4A12671  12.514  13.909   6.057
 1030DLPE   C1B12672  12.941  12.790   6.919
 1030DLPE   D2B12673  13.131  12.912   6.496
 1030DLPE   D3B12674  12.925  12.966   6.043
 1030DLPE   C4B12675  12.863  12.701   5.687
 1031DLPE   NH312676   9.497   8.107   7.323
 1031DLPE   PO412677   9.648   8.444   7.328
 1031DLPE   GL112678   9.806   8.497   7.009
 1031DLPE   GL212679   9.797   8.202   7.002
 1031DLPE   C1A12680   9.709   8.733   6.637
 1031DLPE   D2A12681   9.756   9.171   6.410
 1031DLPE   D3A12682  10.176   9.184   6.290
 1031DLPE   C4A12683  10.571   9.073   6.567
 1031DLPE   C1B12684   9.948   8.237   6.617
 1031DLPE   D2B12685  10.048   8.358   6.085
 1031DLPE   D3B12686   9.900   8.793   6.045
 1031DLPE   C4B12687  10.069   9.147   5.713
 1032DLPE   NH312688  35.518  21.539   8.128
 1032DLPE   PO412689  35.309  21.384   7.894
 1032DLPE   GL112690  35.385  21.248   7.511
 1032DLPE   GL212691  35.328  21.003   7.523
 1032DLPE   C1A12692  35.507  21.455   7.166
 1032DLPE   D2A12693  35.837  21.394   6.835
 1032DLPE   D3A12694  36.209  21.293   6.689
 1032DLPE   C4A12695  36.217  21.333   6.262
 1032DLPE   C1B12696  35.658  20.897   7.223
 1032DLPE   D2B12697  35.803  20.815   6.767
 1032DLPE   D3B12698  36.053  20.907   6.367
 1032DLPE   C4B12699  36.323  20.613   6.221
 1033DLPE   NH312700  30.605   1.363   7.237
 1033DLPE   PO412701  30.817   1.643   7.352
 1033DLPE   GL112702  30.657   1.752   6.988
 1033DLPE   GL212703  30.445   1.952   7.086
 1033DLPE   C1A12704  30.499   1.919   6.593
 1033DLPE   D2A12705  30.477   1.885   6.086
 1033DLPE   D3A12706  30.706   1.767   5.745
 1033DLPE   C4A12707  30.752   2.016   5.368
 1033DLPE   C1B12708  30.741   2.228   6.929
 1033DLPE   D2B12709  30.790   2.280   6.449
 1033DLPE   D3B12710  30.649   2.520   6.062
 1033DLPE   C4B12711  30.588   2.748   5.703
 1034DLPE   NH312712  10.383  22.077   7.129
 1034DLPE   PO412713  10.231  21.957   6.858
 1034DLPE   GL112714   9.822  22.018   6.608
 1034DLPE   GL212715   9.938  21.771   6.522
 1034DLPE   C1A12716   9.655  22.290   6.255
 1034DLPE   D2A12717   9.741  22.061   5.829
 1034DLPE   D3A12718   9.516  21.791   5.462
 1034DLPE   C4A12719   9.156  21.923   5.123
 1034DLPE   C1B12720  10.000  21.623   6.158
 1034DLPE   D2B12721  10.071  21.606   5.696
 1034DLPE   D3B12722  10.090  21.829   5.292
 1034DLPE   C4B12723  10.187  21.310   5.236
 1035DLPE   NH312724  21.134  27.927   7.516
 1035DLPE   PO412725  21.324  27.674   7.478
 1035DLPE   GL112726  21.110  27.464   7.135
 1035DLPE   GL212727  21.003  27.711   7.080
 1035DLPE   C1A12728  21.212  27.081   6.829
 1035DLPE   D2A12729  21.271  26.634   6.732
 1035DLPE   D3A12730  21.485  26.296   6.494
 1035DLPE   C4A12731  21.145  26.017   6.574
 1035DLPE   C1B12732  20.842  27.578   6.640
 1035DLPE   D2B12733  20.780  27.539   6.131
 1035DLPE   D3B12734  20.895  27.894   5.912
 1035DLPE   C4B12735  20.540  28.271   6.011
 1036DLPE   NH312736  10.300  27.992   7.235
 1036DLPE   PO412737  10.407  27.827   6.969
 1036DLPE   GL112738  10.807  27.967   6.894
 1036DLPE   GL212739  10.621  28.167   6.705
 1036DLPE   C1A12740  11.122  27.798   6.653
 1036DLPE   D2A12741  11.082  27.651   6.191
 1036DLPE   D3A12742  11.328  27.848   5.863
 1036DLPE   C4A12743  11.261  27.827   5.355
 1036DLPE   C1B12744  10.605  27.931   6.350
 1036DLPE   D2B12745  10.410  27.709   5.946
 1036DLPE   D3B12746  10.776  27.798   5.691
 1036DLPE   C4B12747  10.750  27.905   5.193
 1037DLPE   NH312748   1.330  19.821   7.708
 1037DLPE   PO412749   1.127  20.100   7.753
 1037DLPE   GL112750   1.378  20.236   7.372
 1037DLPE   GL212751   1.602  20.048   7.399
 1037DLPE   C1A12752   1.496  20.541   7.047
 1037DLPE   D2A12753   1.349  20.868   6.649
 1037DLPE   D3A12754   1.467  20.889   6.243
 1037DLPE   C4A12755   1.854  20.719   5.936
 1037DLPE   C1B12756   1.890  20.008   7.064
 1037DLPE   D2B12757   1.780  19.695   6.720
 1037DLPE   D3B12758   1.723  19.230   6.853
 1037DLPE   C4B12759   1.766  18.790   7.013
 1038DLPE   NH312760  13.868  18.687   7.887
 1038DLPE   PO412761  13.891  18.789   7.554
 1038DLPE   GL112762  13.663  18.711   7.280
 1038DLPE   GL212763  13.415  18.853   7.407
 1038DLPE   C1A12764  13.731  18.963   6.901
 1038DLPE   D2A12765  13.905  18.960   6.454
 1038DLPE   D3A12766  13.964  19.333   6.205
 1038DLPE   C4A12767  13.828  19.754   6.001
 1038DLPE   C1B12768  13.330  19.122   7.107
 1038DLPE   D2B12769  13.417  19.232   6.601
 1038DLPE   D3B12770  13.480  19.164   6.163
 1038DLPE   C4B12771  13.595  19.415   5.822
 1039DLPE   NH312772  26.381  10.499   7.801
 1039DLPE   PO412773  26.410  10.867   7.808
 1039DLPE   GL112774  26.440  11.002   7.448
 1039DLPE   GL212775  26.291  10.947   7.259
 1039DLPE   C1A12776  26.811  11.107   7.206
 1039DLPE   D2A12777  27.213  11.287   7.083
 1039DLPE   D3A12778  27.217  11.424   6.630
 1039DLPE   C4A12779  27.117  11.437   6.142
 1039DLPE   C1B12780  26.454  10.990   6.843
 1039DLPE   D2B12781  26.790  11.077   6.508
 1039DLPE   D3B12782  26.523  11.307   6.236
 1039DLPE   C4B12783  26.478  10.947   6.027
 1040DLPE   NH312784   7.206  10.245   6.990
 1040DLPE   PO412785   6.939  10.397   7.079
 1040DLPE   GL112786   6.867  10.429   6.714
 1040DLPE   GL212787   6.857  10.718   6.657
 1040DLPE   C1A12788   6.933  10.307   6.286
 1040DLPE   D2A12789   6.669  10.554   5.905
 1040DLPE   D3A12790   6.549  10.561   5.490
 1040DLPE   C4A12791   6.342  10.564   5.100
 1040DLPE   C1B12792   6.540  10.745   6.408
 1040DLPE   D2B12793   6.294  10.884   6.015
 1040DLPE   D3B12794   6.190  10.430   5.854
 1040DLPE   C4B12795   5.746  10.527   5.714
 1041DLPE   NH312796  22.349  29.426   7.255
 1041DLPE   PO412797  22.302  29.068   7.315
 1041DLPE   GL112798  22.351  28.939   6.901
 1041DLPE   GL212799  22.538  29.157   6.881
 1041DLPE   C1A12800  22.267  29.058   6.440
 1041DLPE   D2A12801  22.089  28.992   5.990
 1041DLPE   D3A12802  21.669  29.079   5.889
 1041DLPE   C4A12803  21.487  29.456   6.201
 1041DLPE   C1B12804  22.650  29.385   6.544
 1041DLPE   D2B12805  22.420  29.750   6.312
 1041DLPE   D3B12806  22.084  29.524   6.101
 1041DLPE   C4B12807  21.846  29.671   5.636
 1042DLPE   NH312808   4.312  20.150   8.026
 1042DLPE   PO412809   4.483  19.977   7.763
 1042DLPE   GL112810   4.381  20.137   7.300
 1042DLPE   GL212811   4.541  19.881   7.262
 1042DLPE   C1A12812   4.202  20.377   6.892
 1042DLPE   D2A12813   4.328  20.389   6.433
 1042DLPE   D3A12814   4.168  20.768   6.276
 1042DLPE   C4A12815   3.746  20.796   5.945
 1042DLPE   C1B12816   4.616  19.917   6.740
 1042DLPE   D2B12817   4.331  19.861   6.297
 1042DLPE   D3B12818   4.154  20.207   5.998
 1042DLPE   C4B12819   3.899  19.876   5.781
 1043DLPE   NH312820  16.888  12.547   7.577
 1043DLPE   PO412821  17.203  12.476   7.398
 1043DLPE   GL112822  17.233  12.541   6.982
 1043DLPE   GL212823  17.125  12.647   6.740
 1043DLPE   C1A12824  17.538  12.264   6.877
 1043DLPE   D2A12825  17.446  11.817   6.707
 1043DLPE   D3A12826  17.275  11.726   6.279
 1043DLPE   C4A12827  17.541  12.170   6.252
 1043DLPE   C1B12828  17.081  12.543   6.294
 1043DLPE   D2B12829  17.157  12.523   5.787
 1043DLPE   D3B12830  17.365  12.132   5.790
 1043DLPE   C4B12831  17.792  11.815   5.726
 1044DLPE   NH312832   9.224  31.210   7.449
 1044DLPE   PO412833   9.459  30.995   7.301
 1044DLPE   GL112834   9.566  31.140   6.884
 1044DLPE   GL212835   9.755  30.930   6.767
 1044DLPE   C1A12836   9.499  31.408   6.507
 1044DLPE   D2A12837   9.520  31.585   6.057
 1044DLPE   D3A12838   9.322  31.390   5.696
 1044DLPE   C4A12839   8.878  31.442   5.761
 1044DLPE   C1B12840   9.723  30.824   6.364
 1044DLPE   D2B12841   9.806  30.680   5.911
 1044DLPE   D3B12842  10.046  30.438   5.634
 1044DLPE   C4B12843  10.065  30.027   5.308
 1045DLPE   NH312844  13.939  29.362   7.609
 1045DLPE   PO412845  14.020  29.224   7.289
 1045DLPE   GL112846  14.063  29.488   6.940
 1045DLPE   GL212847  13.983  29.142   6.823
 1045DLPE   C1A12848  13.965  29.721   6.547
 1045DLPE   D2A12849  14.140  30.069   6.157
 1045DLPE   D3A12850  13.862  30.270   5.903
 1045DLPE   C4A12851  13.388  30.149   6.020
 1045DLPE   C1B12852  14.413  29.008   6.709
 1045DLPE   D2B12853  14.612  28.585   6.484
 1045DLPE   D3B12854  14.453  28.191   6.335
 1045DLPE   C4B12855  14.253  28.514   6.069
 1046DLPE   NH312856  31.510  34.357   7.456
 1046DLPE   PO412857  31.744  34.504   7.716
 1046DLPE   GL112858  31.886  34.726   7.457
 1046DLPE   GL212859  32.118  34.626   7.361
 1046DLPE   C1A12860  31.726  34.873   7.094
 1046DLPE   D2A12861  31.804  34.560   6.685
 1046DLPE   D3A12862  31.791  34.532   6.233
 1046DLPE   C4A12863  32.202  34.501   5.973
 1046DLPE   C1B12864  32.194  34.734   6.918
 1046DLPE   D2B12865  32.180  34.822   6.407
 1046DLPE   D3B12866  32.281  35.054   6.016
 1046DLPE   C4B12867  32.428  35.024   5.523
 1047DLPE   NH312868  33.982   3.483   7.593
 1047DLPE   PO412869  33.906   3.737   7.384
 1047DLPE   GL112870  34.104   3.888   7.115
 1047DLPE   GL212871  34.260   3.741   6.935
 1047DLPE   C1A12872  33.993   4.195   6.877
 1047DLPE   D2A12873  33.626   4.467   6.838
 1047DLPE   D3A12874  33.233   4.465   6.637
 1047DLPE   C4A12875  33.069   4.582   6.238
 1047DLPE   C1B12876  34.158   3.858   6.506
 1047DLPE   D2B12877  34.262   3.914   6.020
 1047DLPE   D3B12878  34.320   3.980   5.563
 1047DLPE   C4B12879  34.012   3.947   5.209
 1048DLPE   NH312880   9.244  33.982   7.653
 1048DLPE   PO412881   9.584  33.977   7.577
 1048DLPE   GL112882   9.716  33.639   7.282
 1048DLPE   GL212883   9.796  33.852   7.105
 1048DLPE   C1A12884   9.466  33.447   7.095
 1048DLPE   D2A12885   9.161  33.146   6.959
 1048DLPE   D3A12886   8.702  33.320   7.065
 1048DLPE   C4A12887   8.533  33.479   6.627
 1048DLPE   C1B12888   9.836  33.849   6.673
 1048DLPE   D2B12889   9.671  33.720   6.210
 1048DLPE   D3B12890   9.567  33.670   5.826
 1048DLPE   C4B12891   9.810  33.701   5.445
 1049DLPE   NH312892  15.147   3.497   7.757
 1049DLPE   PO412893  15.228   3.613   7.450
 1049DLPE   GL112894  14.980   3.963   7.344
 1049DLPE   GL212895  15.014   3.745   7.135
 1049DLPE   C1A12896  15.121   4.283   7.007
 1049DLPE   D2A12897  14.955   4.295   6.507
 1049DLPE   D3A12898  15.411   4.399   6.418
 1049DLPE   C4A12899  15.593   4.661   6.088
 1049DLPE   C1B12900  15.104   3.877   6.723
 1049DLPE   D2B12901  15.305   3.985   6.268
 1049DLPE   D3B12902  15.089   4.287   6.025
 1049DLPE   C4B12903  14.730   4.075   6.099
 1050DLPE   NH312904  20.993   5.343   7.560
 1050DLPE   PO412905  20.787   5.291   7.242
 1050DLPE   GL112906  20.905   5.083   6.909
 1050DLPE   GL212907  20.903   5.270   6.750
 1050DLPE   C1A12908  20.750   4.711   6.678
 1050DLPE   D2A12909  20.543   4.497   6.258
 1050DLPE   D3A12910  20.772   4.653   5.902
 1050DLPE   C4A12911  20.650   4.985   5.577
 1050DLPE   C1B12912  20.844   5.061   6.356
 1050DLPE   D2B12913  21.004   5.158   5.897
 1050DLPE   D3B12914  21.123   5.394   5.529
 1050DLPE   C4B12915  20.876   5.216   5.184
 1051DLPE   NH312916   5.149  24.105   7.508
 1051DLPE   PO412917   5.020  23.778   7.447
 1051DLPE   GL112918   4.921  23.908   7.015
 1051DLPE   GL212919   4.642  23.813   7.188
 1051DLPE   C1A12920   4.776  23.983   6.564
 1051DLPE   D2A12921   4.849  24.190   6.147
 1051DLPE   D3A12922   4.368  24.222   6.093
 1051DLPE   C4A12923   4.102  24.263   5.718
 1051DLPE   C1B12924   4.285  23.610   6.988
 1051DLPE   D2B12925   3.918  23.340   6.893
 1051DLPE   D3B12926   3.988  23.365   6.464
 1051DLPE   C4B12927   3.833  23.281   6.006
 1052DLPE   NH312928   9.935  34.282   7.394
 1052DLPE   PO412929  10.236  34.474   7.353
 1052DLPE   GL112930  10.661  34.401   7.456
 1052DLPE   GL212931  10.688  34.677   7.622
 1052DLPE   C1A12932  10.988  34.276   7.199
 1052DLPE   D2A12933  11.105  34.176   6.743
 1052DLPE   D3A12934  11.103  34.422   6.426
 1052DLPE   C4A12935  10.964  34.884   6.550
 1052DLPE   C1B12936  10.811  34.793   7.182
 1052DLPE   D2B12937  11.048  35.172   6.936
 1052DLPE   D3B12938  11.381  34.886   7.143
 1052DLPE   C4B12939  11.296  34.610   6.818
 1053DLPE   NH312940  30.392  10.004   7.319
 1053DLPE   PO412941  30.588  10.193   7.144
 1053DLPE   GL112942  30.650  10.067   6.771
 1053DLPE   GL212943  30.436   9.805   6.807
 1053DLPE   C1A12944  30.990  10.294   6.516
 1053DLPE   D2A12945  31.266  10.550   6.230
 1053DLPE   D3A12946  30.941  10.711   5.891
 1053DLPE   C4A12947  31.212  10.840   5.572
 1053DLPE   C1B12948  30.399   9.706   6.403
 1053DLPE   D2B12949  30.495   9.635   5.917
 1053DLPE   D3B12950  30.903   9.793   6.117
 1053DLPE   C4B12951  30.729  10.222   6.067
 1054DLPE   NH312952  33.150  19.509   7.824
 1054DLPE   PO412953  32.794  19.546   7.903
 1054DLPE   GL112954  32.764  19.251   7.570
 1054DLPE   GL212955  32.992  19.128   7.460
 1054DLPE   C1A12956  32.746  19.361   7.141
 1054DLPE   D2A12957  32.691  19.418   6.704
 1054DLPE   D3A12958  32.638  19.561   6.246
 1054DLPE   C4A12959  32.698  19.795   5.824
 1054DLPE   C1B12960  32.908  18.883   7.096
 1054DLPE   D2B12961  32.871  18.945   6.586
 1054DLPE   D3B12962  32.954  19.158   6.230
 1054DLPE   C4B12963  32.758  19.185   5.885
 1055DLPE   NH312964  32.451  21.555   7.806
 1055DLPE   PO412965  32.586  21.348   7.591
 1055DLPE   GL112966  32.332  21.364   7.186
 1055DLPE   GL212967  32.485  21.266   7.087
 1055DLPE   C1A12968  32.326  21.701   6.915
 1055DLPE   D2A12969  32.291  22.157   6.730
 1055DLPE   D3A12970  31.873  22.290   6.706
 1055DLPE   C4A12971  31.735  22.360   6.248
 1055DLPE   C1B12972  32.399  21.222   6.686
 1055DLPE   D2B12973  32.078  21.263   6.245
 1055DLPE   D3B12974  32.139  21.554   5.962
 1055DLPE   C4B12975  32.330  21.672   6.369
 1056DLPE   NH312976  22.296  16.035   7.979
 1056DLPE   PO412977  22.632  16.085   7.899
 1056DLPE   GL112978  22.466  16.059   7.484
 1056DLPE   GL212979  22.279  16.182   7.519
 1056DLPE   C1A12980  22.462  16.060   7.045
 1056DLPE   D2A12981  22.499  16.183   6.568
 1056DLPE   D3A12982  22.468  16.356   6.156
 1056DLPE   C4A12983  22.774  16.359   5.806
 1056DLPE   C1B12984  22.161  16.489   7.299
 1056DLPE   D2B12985  22.085  16.393   6.814
 1056DLPE   D3B12986  22.088  16.591   6.399
 1056DLPE   C4B12987  22.009  16.455   5.925
 1057DLPE   NH312988  10.832  29.688   7.015
 1057DLPE   PO412989  10.627  29.841   7.243
 1057DLPE   GL112990  10.230  29.881   6.878
 1057DLPE   GL212991  10.126  29.628   6.976
 1057DLPE   C1A12992  10.527  29.995   6.533
 1057DLPE   D2A12993  10.580  29.750   6.075
 1057DLPE   D3A12994  10.347  29.372   6.033
 1057DLPE   C4A12995  10.227  29.117   5.629
 1057DLPE   C1B12996   9.932  29.269   6.851
 1057DLPE   D2B12997   9.741  29.027   6.425
 1057DLPE   D3B12998  10.106  28.936   6.142
 1057DLPE   C4B12999  10.340  28.594   5.838
 1058DLPE   NH313000  32.062  11.943   7.834
 1058DLPE   PO413001  31.875  11.881   7.561
 1058DLPE   GL113002  32.152  11.986   7.301
 1058DLPE   GL213003  32.001  12.164   7.287
 1058DLPE   C1A13004  32.247  11.815   6.915
 1058DLPE   D2A13005  32.258  11.949   6.462
 1058DLPE   D3A13006  32.083  11.663   6.180
 1058DLPE   C4A13007  31.908  12.034   5.956
 1058DLPE   C1B13008  32.146  12.270   6.848
 1058DLPE   D2B13009  32.106  12.716   6.646
 1058DLPE   D3B13010  32.247  12.872   6.225
 1058DLPE   C4B13011  31.865  12.794   5.869
 1059DLPE   NH313012  25.544  18.838   7.668
 1059DLPE   PO413013  25.307  18.606   7.547
 1059DLPE   GL113014  25.271  18.537   7.145
 1059DLPE   GL213015  25.559  18.530   7.133
 1059DLPE   C1A13016  25.038  18.573   6.785
 1059DLPE   D2A13017  24.771  18.383   6.418
 1059DLPE   D3A13018  24.735  18.774   6.257
 1059DLPE   C4A13019  24.475  18.748   5.882
 1059DLPE   C1B13020  25.517  18.753   6.735
 1059DLPE   D2B13021  25.372  18.575   6.325
 1059DLPE   D3B13022  25.088  18.578   6.023
 1059DLPE   C4B13023  24.776  18.401   5.728
 1060DLPE   NH313024  25.420  10.761   7.709
 1060DLPE   PO413025  25.146  10.573   7.797
 1060DLPE   GL113026  25.040  10.651   7.328
 1060DLPE   GL213027  25.359  10.603   7.264
 1060DLPE   C1A13028  24.806  10.790   6.974
 1060DLPE   D2A13029  24.511  11.076   6.692
 1060DLPE   D3A13030  24.562  11.198   6.311
 1060DLPE   C4A13031  24.205  11.475   6.285
 1060DLPE   C1B13032  25.490  10.760   6.844
 1060DLPE   D2B13033  25.388  10.753   6.353
 1060DLPE   D3B13034  25.485  10.669   5.951
 1060DLPE   C4B13035  25.596  10.719   5.536
 1061DLPE   NH313036  20.521  18.610   8.128
 1061DLPE   PO413037  20.346  18.663   7.830
 1061DLPE   GL113038  20.395  18.577   7.394
 1061DLPE   GL213039  20.108  18.543   7.384
 1061DLPE   C1A13040  20.398  18.620   6.920
 1061DLPE   D2A13041  20.540  18.724   6.472
 1061DLPE   D3A13042  20.351  18.809   6.028
 1061DLPE   C4A13043  20.659  18.633   5.684
 1061DLPE   C1B13044  19.861  18.309   7.059
 1061DLPE   D2B13045  19.767  18.233   6.586
 1061DLPE   D3B13046  20.033  18.287   6.198
 1061DLPE   C4B13047  20.418  17.996   6.299
 1062DLPE   NH313048   0.215  23.667   8.330
 1062DLPE   PO413049   0.311  23.590   7.984
 1062DLPE   GL113050   0.137  23.736   7.571
 1062DLPE   GL213051   0.397  23.633   7.516
 1062DLPE   C1A13052   0.026  24.116   7.301
 1062DLPE   D2A13053  -0.461  24.247   7.149
 1062DLPE   D3A13054  -0.761  23.947   7.038
 1062DLPE   C4A13055  -0.857  23.933   6.497
 1062DLPE   C1B13056   0.390  23.356   7.230
 1062DLPE   D2B13057   0.282  23.002   6.832
 1062DLPE   D3B13058   0.164  22.695   6.451
 1062DLPE   C4B13059   0.035  22.697   5.977
 1063DLPE   NH313060  32.189  19.711   7.804
 1063DLPE   PO413061  32.408  19.713   7.576
 1063DLPE   GL113062  32.215  19.556   7.243
 1063DLPE   GL213063  32.416  19.607   7.077
 1063DLPE   C1A13064  31.848  19.386   6.991
 1063DLPE   D2A13065  31.590  19.212   6.579
 1063DLPE   D3A13066  31.854  19.175   6.238
 1063DLPE   C4A13067  31.788  19.369   5.837
 1063DLPE   C1B13068  32.306  19.677   6.591
 1063DLPE   D2B13069  32.174  19.787   6.102
 1063DLPE   D3B13070  32.058  20.177   5.998
 1063DLPE   C4B13071  31.661  20.138   6.236
 1064DLPE   NH313072   5.340  23.279   7.349
 1064DLPE   PO413073   5.497  23.588   7.420
 1064DLPE   GL113074   5.372  23.783   7.115
 1064DLPE   GL213075   5.242  23.589   6.989
 1064DLPE   C1A13076   5.378  24.126   6.902
 1064DLPE   D2A13077   5.364  24.116   6.375
 1064DLPE   D3A13078   5.194  23.844   5.984
 1064DLPE   C4A13079   5.058  23.910   5.540
 1064DLPE   C1B13080   5.218  23.664   6.596
 1064DLPE   D2B13081   5.262  23.338   6.174
 1064DLPE   D3B13082   5.243  23.464   5.709
 1064DLPE   C4B13083   5.160  23.160   5.406
 1065DLPE   NH313084   1.671  23.240   7.745
 1065DLPE   PO413085   1.458  23.459   7.908
 1065DLPE   GL113086   1.189  23.553   7.637
 1065DLPE   GL213087   1.255  23.313   7.466
 1065DLPE   C1A13088   1.014  23.850   7.353
 1065DLPE   D2A13089   0.832  24.029   6.928
 1065DLPE   D3A13090   0.784  24.014   6.487
 1065DLPE   C4A13091   0.689  23.656   6.182
 1065DLPE   C1B13092   1.195  23.403   6.997
 1065DLPE   D2B13093   1.411  23.641   6.611
 1065DLPE   D3B13094   1.232  23.937   6.396
 1065DLPE   C4B13095   1.649  24.087   6.480
 1066DLPE   NH313096  35.063   1.225   7.406
 1066DLPE   PO413097  35.006   1.580   7.359
 1066DLPE   GL113098  35.094   1.468   6.970
 1066DLPE   GL213099  35.351   1.352   7.006
 1066DLPE   C1A13100  34.868   1.428   6.559
 1066DLPE   D2A13101  34.889   1.206   6.118
 1066DLPE   D3A13102  34.932   1.386   5.697
 1066DLPE   C4A13103  34.760   1.750   5.445
 1066DLPE   C1B13104  35.365   1.233   6.522
 1066DLPE   D2B13105  35.375   1.137   6.021
 1066DLPE   D3B13106  35.395   1.410   5.674
 1066DLPE   C4B13107  35.147   1.540   5.285
 1067DLPE   NH313108   1.745  21.586   7.871
 1067DLPE   PO413109   1.552  21.778   7.694
 1067DLPE   GL113110   1.413  21.785   7.312
 1067DLPE   GL213111   1.551  21.915   7.202
 1067DLPE   C1A13112   0.970  22.002   7.192
 1067DLPE   D2A13113   0.800  22.071   6.749
 1067DLPE   D3A13114   0.788  22.220   6.314
 1067DLPE   C4A13115   0.464  22.505   6.034
 1067DLPE   C1B13116   1.375  22.128   6.832
 1067DLPE   D2B13117   1.198  22.478   6.555
 1067DLPE   D3B13118   1.304  22.360   6.152
 1067DLPE   C4B13119   1.618  22.372   5.778
 1068DLPE   NH313120   9.159   7.366   7.406
 1068DLPE   PO413121   9.424   7.590   7.404
 1068DLPE   GL113122   9.441   7.670   6.982
 1068DLPE   GL213123   9.207   7.548   6.956
 1068DLPE   C1A13124   9.715   7.814   6.727
 1068DLPE   D2A13125   9.894   7.916   6.301
 1068DLPE   D3A13126   9.895   7.857   5.866
 1068DLPE   C4A13127   9.953   7.699   5.399
 1068DLPE   C1B13128   9.318   7.286   6.562
 1068DLPE   D2B13129   9.548   7.092   6.110
 1068DLPE   D3B13130   9.693   6.641   6.108
 1068DLPE   C4B13131   9.468   6.519   5.688
 1069DLPE   NH313132  30.710  20.384   7.232
 1069DLPE   PO413133  30.836  20.706   7.072
 1069DLPE   GL113134  30.846  20.945   6.675
 1069DLPE   GL213135  30.891  20.672   6.570
 1069DLPE   C1A13136  30.909  21.377   6.618
 1069DLPE   D2A13137  31.333  21.624   6.763
 1069DLPE   D3A13138  31.375  21.815   6.370
 1069DLPE   C4A13139  31.257  21.939   5.894
 1069DLPE   C1B13140  30.904  20.675   6.038
 1069DLPE   D2B13141  31.205  20.979   5.835
 1069DLPE   D3B13142  31.214  20.993   5.447
 1069DLPE   C4B13143  31.646  20.881   5.638
 1070DLPE   NH313144   3.005  17.204   7.528
 1070DLPE   PO413145   3.177  16.970   7.315
 1070DLPE   GL113146   2.991  16.553   7.154
 1070DLPE   GL213147   3.313  16.524   6.987
 1070DLPE   C1A13148   2.662  16.363   7.011
 1070DLPE   D2A13149   2.427  15.972   7.065
 1070DLPE   D3A13150   1.934  15.954   7.120
 1070DLPE   C4A13151   1.813  15.566   6.826
 1070DLPE   C1B13152   3.094  16.597   6.679
 1070DLPE   D2B13153   2.793  16.431   6.403
 1070DLPE   D3B13154   2.594  16.054   6.614
 1070DLPE   C4B13155   2.249  15.662   6.655
 1071DLPE   NH313156  32.981  18.114   7.801
 1071DLPE   PO413157  32.893  18.423   7.983
 1071DLPE   GL113158  32.775  18.494   7.577
 1071DLPE   GL213159  32.712  18.769   7.559
 1071DLPE   C1A13160  33.041  18.267   7.229
 1071DLPE   D2A13161  33.251  18.049   6.891
 1071DLPE   D3A13162  33.398  18.164   6.514
 1071DLPE   C4A13163  33.301  18.520   6.327
 1071DLPE   C1B13164  32.442  18.941   7.240
 1071DLPE   D2B13165  32.283  19.217   6.898
 1071DLPE   D3B13166  32.279  18.993   6.490
 1071DLPE   C4B13167  32.288  19.091   6.050
 1072DLPE   NH313168  32.918  33.449   7.915
 1072DLPE   PO413169  32.786  33.347   7.645
 1072DLPE   GL113170  32.811  33.249   7.234
 1072DLPE   GL213171  32.622  33.011   7.269
 1072DLPE   C1A13172  32.973  33.356   6.889
 1072DLPE   D2A13173  33.403  33.097   6.717
 1072DLPE   D3A13174  33.105  33.334   6.413
 1072DLPE   C4A13175  33.132  33.333   5.898
 1072DLPE   C1B13176  32.899  32.865   6.963
 1072DLPE   D2B13177  33.082  32.809   6.486
 1072DLPE   D3B13178  32.772  32.725   6.138
 1072DLPE   C4B13179  32.394  32.659   5.827
 1073DLPE   NH313180  16.408  26.841   8.032
 1073DLPE   PO413181  16.312  26.700   7.734
 1073DLPE   GL113182  16.585  26.636   7.358
 1073DLPE   GL213183  16.439  26.477   7.303
 1073DLPE   C1A13184  16.898  26.546   7.157
 1073DLPE   D2A13185  17.281  26.757   6.952
 1073DLPE   D3A13186  17.314  26.730   6.503
 1073DLPE   C4A13187  17.642  26.555   6.306
 1073DLPE   C1B13188  16.459  26.439   6.858
 1073DLPE   D2B13189  16.822  26.540   6.585
 1073DLPE   D3B13190  16.936  26.517   6.125
 1073DLPE   C4B13191  16.491  26.322   6.171
 1074DLPE   NH313192   4.239  19.511   7.540
 1074DLPE   PO413193   4.002  19.244   7.480
 1074DLPE   GL113194   3.853  19.005   7.097
 1074DLPE   GL213195   4.041  19.218   6.954
 1074DLPE   C1A13196   3.601  18.899   6.769
 1074DLPE   D2A13197   3.454  18.759   6.347
 1074DLPE   D3A13198   3.222  18.519   6.651
 1074DLPE   C4A13199   2.963  18.078   6.543
 1074DLPE   C1B13200   3.900  19.206   6.567
 1074DLPE   D2B13201   3.942  18.868   6.202
 1074DLPE   D3B13202   3.908  18.797   5.738
 1074DLPE   C4B13203   4.084  18.676   5.285
 1075DLPE   NH313204  19.876   6.903   7.668
 1075DLPE   PO413205  19.569   7.061   7.558
 1075DLPE   GL113206  19.683   7.239   7.223
 1075DLPE   GL213207  19.934   7.014   7.162
 1075DLPE   C1A13208  19.722   7.505   6.902
 1075DLPE   D2A13209  19.685   7.784   6.524
 1075DLPE   D3A13210  19.621   8.254   6.410
 1075DLPE   C4A13211  19.810   8.550   6.066
 1075DLPE   C1B13212  19.977   7.097   6.848
 1075DLPE   D2B13213  20.117   6.897   6.404
 1075DLPE   D3B13214  20.189   7.142   6.049
 1075DLPE   C4B13215  19.861   7.421   5.826
 1076DLPE   NH313216  32.230  21.045   7.534
 1076DLPE   PO413217  31.986  21.082   7.308
 1076DLPE   GL113218  32.017  20.802   7.048
 1076DLPE   GL213219  32.322  20.847   7.060
 1076DLPE   C1A13220  32.077  20.433   7.034
 1076DLPE   D2A13221  32.122  20.094   6.765
 1076DLPE   D3A13222  32.056  20.346   6.470
 1076DLPE   C4A13223  32.473  20.124   6.387
 1076DLPE   C1B13224  32.437  20.673   6.750
 1076DLPE   D2B13225  32.561  20.722   6.295
 1076DLPE   D3B13226  32.556  20.457   5.998
 1076DLPE   C4B13227  32.753  20.234   5.605
 1077DLPE   NH313228  10.609   8.053   7.180
 1077DLPE   PO413229  10.870   8.281   7.253
 1077DLPE   GL113230  11.136   8.449   6.992
 1077DLPE   GL213231  11.331   8.365   6.881
 1077DLPE   C1A13232  11.115   8.785   6.739
 1077DLPE   D2A13233  11.110   9.279   6.579
 1077DLPE   D3A13234  10.987   9.544   6.284
 1077DLPE   C4A13235  10.676   9.256   5.986
 1077DLPE   C1B13236  11.684   8.610   6.671
 1077DLPE   D2B13237  11.813   8.657   6.211
 1077DLPE   D3B13238  11.493   8.638   5.951
 1077DLPE   C4B13239  11.705   8.802   5.559
 1078DLPE   NH313240   1.957  20.367   8.255
 1078DLPE   PO413241   2.007  20.563   8.018
 1078DLPE   GL113242   2.295  20.464   7.740
 1078DLPE   GL213243   2.098  20.721   7.562
 1078DLPE   C1A13244   2.302  20.329   7.382
 1078DLPE   D2A13245   2.462  19.949   7.045
 1078DLPE   D3A13246   2.787  19.858   6.717
 1078DLPE   C4A13247   2.488  19.898   6.364
 1078DLPE   C1B13248   2.203  20.929   7.259
 1078DLPE   D2B13249   2.074  21.294   6.945
 1078DLPE   D3B13250   2.213  21.567   6.618
 1078DLPE   C4B13251   2.379  22.019   6.572
 1079DLPE   NH313252   4.336   7.192   7.325
 1079DLPE   PO413253   4.043   6.988   7.303
 1079DLPE   GL113254   3.904   7.004   6.931
 1079DLPE   GL213255   3.925   6.685   6.964
 1079DLPE   C1A13256   3.864   7.260   6.475
 1079DLPE   D2A13257   3.815   7.427   5.997
 1079DLPE   D3A13258   3.607   7.653   5.616
 1079DLPE   C4A13259   3.315   7.936   5.406
 1079DLPE   C1B13260   4.003   6.670   6.504
 1079DLPE   D2B13261   4.004   6.717   6.026
 1079DLPE   D3B13262   3.764   6.743   5.659
 1079DLPE   C4B13263   3.706   7.130   5.450
 1080DLPE   NH313264   6.355   1.262   7.908
 1080DLPE   PO413265   6.482   1.450   7.623
 1080DLPE   GL113266   6.258   1.379   7.202
 1080DLPE   GL213267   6.479   1.131   7.277
 1080DLPE   C1A13268   6.167   1.428   6.738
 1080DLPE   D2A13269   6.130   1.184   6.351
 1080DLPE   D3A13270   6.087   1.417   5.904
 1080DLPE   C4A13271   6.561   1.577   5.768
 1080DLPE   C1B13272   6.736   1.334   6.909
 1080DLPE   D2B13273   7.126   1.481   6.609
 1080DLPE   D3B13274   7.019   1.422   6.132
 1080DLPE   C4B13275   6.945   1.186   5.685
 1081DLPE   NH313276   0.687  22.638   7.901
 1081DLPE   PO413277   0.383  22.564   7.785
 1081DLPE   GL113278   0.130  22.518   7.439
 1081DLPE   GL213279   0.248  22.766   7.491
 1081DLPE   C1A13280   0.161  22.550   7.051
 1081DLPE   D2A13281   0.486  22.490   6.682
 1081DLPE   D3A13282   0.783  22.775   6.512
 1081DLPE   C4A13283   0.489  23.099   6.406
 1081DLPE   C1B13284   0.593  22.762   7.194
 1081DLPE   D2B13285   0.989  22.460   7.053
 1081DLPE   D3B13286   1.335  22.322   7.320
 1081DLPE   C4B13287   1.852  22.309   7.295
 1082DLPE   NH313288  31.332   4.587   8.049
 1082DLPE   PO413289  31.070   4.488   7.868
 1082DLPE   GL113290  31.059   4.612   7.345
 1082DLPE   GL213291  30.995   4.305   7.326
 1082DLPE   C1A13292  31.424   4.616   7.091
 1082DLPE   D2A13293  31.440   4.741   6.580
 1082DLPE   D3A13294  31.389   4.596   6.174
 1082DLPE   C4A13295  31.391   4.507   5.746
 1082DLPE   C1B13296  31.086   4.227   6.895
 1082DLPE   D2B13297  31.289   4.167   6.461
 1082DLPE   D3B13298  31.449   4.009   6.030
 1082DLPE   C4B13299  31.744   3.705   5.748
 1083DLPE   NH313300   4.204  35.795   7.626
 1083DLPE   PO413301   4.531  36.010   7.561
 1083DLPE   GL113302   4.546  35.868   7.170
 1083DLPE   GL213303   4.280  35.671   7.228
 1083DLPE   C1A13304   4.496  36.151   6.830
 1083DLPE   D2A13305   4.533  36.439   6.434
 1083DLPE   D3A13306   4.603  36.478   6.021
 1083DLPE   C4A13307   5.023  36.618   5.778
 1083DLPE   C1B13308   4.106  35.539   6.900
 1083DLPE   D2B13309   4.039  35.325   6.490
 1083DLPE   D3B13310   4.294  35.451   6.166
 1083DLPE   C4B13311   4.486  35.567   6.611
 1084DLPE   NH313312  17.388  19.089   8.579
 1084DLPE   PO413313  17.365  19.308   8.327
 1084DLPE   GL113314  17.416  19.220   7.982
 1084DLPE   GL213315  17.613  19.271   7.969
 1084DLPE   C1A13316  17.336  18.961   7.668
 1084DLPE   D2A13317  17.422  19.094   7.181
 1084DLPE   D3A13318  17.516  19.299   6.793
 1084DLPE   C4A13319  17.588  19.052   6.426
 1084DLPE   C1B13320  17.560  19.430   7.582
 1084DLPE   D2B13321  17.475  19.743   7.168
 1084DLPE   D3B13322  17.383  19.828   6.715
 1084DLPE   C4B13323  17.480  19.586   6.336
 1085DLPE   NH313324  20.657  27.042   7.431
 1085DLPE   PO413325  20.436  27.210   7.610
 1085DLPE   GL113326  20.291  27.410   7.207
 1085DLPE   GL213327  20.595  27.332   7.099
 1085DLPE   C1A13328  19.985  27.341   6.922
 1085DLPE   D2A13329  20.200  26.953   6.683
 1085DLPE   D3A13330  20.504  27.033   6.389
 1085DLPE   C4A13331  20.432  27.209   5.910
 1085DLPE   C1B13332  20.713  27.062   6.853
 1085DLPE   D2B13333  20.916  26.853   6.458
 1085DLPE   D3B13334  21.132  27.192   6.281
 1085DLPE   C4B13335  20.949  27.040   5.908
 1086DLPE   NH313336   1.506  24.750   7.818
 1086DLPE   PO413337   1.604  24.723   7.463
 1086DLPE   GL113338   1.337  24.988   7.163
 1086DLPE   GL213339   1.271  24.663   7.194
 1086DLPE   C1A13340   1.300  24.914   6.718
 1086DLPE   D2A13341   1.257  25.003   6.175
 1086DLPE   D3A13342   1.580  25.227   5.890
 1086DLPE   C4A13343   2.005  25.075   5.806
 1086DLPE   C1B13344   1.257  24.404   6.858
 1086DLPE   D2B13345   0.902  24.530   6.515
 1086DLPE   D3B13346   1.201  24.382   6.201
 1086DLPE   C4B13347   1.619  24.170   5.957
 1087DLPE   NH313348  27.347  32.605   7.633
 1087DLPE   PO413349  27.572  32.464   7.397
 1087DLPE   GL113350  27.510  32.281   7.059
 1087DLPE   GL213351  27.670  32.090   6.983
 1087DLPE   C1A13352  27.433  32.439   6.630
 1087DLPE   D2A13353  27.493  32.624   6.205
 1087DLPE   D3A13354  27.580  32.674   5.783
 1087DLPE   C4A13355  27.453  32.591   5.366
 1087DLPE   C1B13356  27.630  31.970   6.583
 1087DLPE   D2B13357  27.619  32.139   6.140
 1087DLPE   D3B13358  28.008  32.269   5.877
 1087DLPE   C4B13359  28.283  32.503   5.570
 1088DLPE   NH313360   6.710  34.709   7.091
 1088DLPE   PO413361   6.348  34.826   7.175
 1088DLPE   GL113362   6.298  34.761   6.757
 1088DLPE   GL213363   5.990  34.939   6.829
 1088DLPE   C1A13364   6.174  34.835   6.361
 1088DLPE   D2A13365   6.072  34.733   5.945
 1088DLPE   D3A13366   6.301  34.764   5.602
 1088DLPE   C4A13367   6.390  34.981   5.167
 1088DLPE   C1B13368   6.048  35.279   6.489
 1088DLPE   D2B13369   6.097  35.641   6.154
 1088DLPE   D3B13370   6.165  35.742   5.695
 1088DLPE   C4B13371   6.416  35.371   5.457
 1089DLPE   NH313372  22.609  27.957   7.438
 1089DLPE   PO413373  22.266  27.892   7.402
 1089DLPE   GL113374  21.977  28.004   7.126
 1089DLPE   GL213375  22.121  28.206   7.025
 1089DLPE   C1A13376  21.809  27.773   6.792
 1089DLPE   D2A13377  21.792  27.850   6.270
 1089DLPE   D3A13378  22.212  27.958   6.146
 1089DLPE   C4A13379  22.507  28.241   5.849
 1089DLPE   C1B13380  22.237  28.110   6.584
 1089DLPE   D2B13381  22.628  28.071   6.376
 1089DLPE   D3B13382  22.613  27.668   6.426
 1089DLPE   C4B13383  22.627  27.740   5.956
 1090DLPE   NH313384   9.008   0.213   6.994
 1090DLPE   PO413385   8.726  -0.009   6.927
 1090DLPE   GL113386   8.455   0.073   6.618
 1090DLPE   GL213387   8.666   0.054   6.418
 1090DLPE   C1A13388   8.227   0.087   6.261
 1090DLPE   D2A13389   8.074   0.017   5.799
 1090DLPE   D3A13390   7.944   0.286   5.460
 1090DLPE   C4A13391   8.421   0.342   5.371
 1090DLPE   C1B13392   8.567  -0.119   5.994
 1090DLPE   D2B13393   8.495  -0.180   5.457
 1090DLPE   D3B13394   8.215  -0.213   5.117
 1090DLPE   C4B13395   8.146  -0.166   4.688
 1091DLPE   NH313396  19.568  11.030   8.241
 1091DLPE   PO413397  19.409  11.303   8.115
 1091DLPE   GL113398  19.149  11.190   7.744
 1091DLPE   GL213399  19.359  10.901   7.757
 1091DLPE   C1A13400  18.976  11.357   7.329
 1091DLPE   D2A13401  18.756  11.590   6.938
 1091DLPE   D3A13402  18.737  11.486   6.471
 1091DLPE   C4A13403  19.061  11.470   6.187
 1091DLPE   C1B13404  19.396  11.024   7.362
 1091DLPE   D2B13405  19.388  11.260   7.001
 1091DLPE   D3B13406  19.243  11.704   7.107
 1091DLPE   C4B13407  18.905  11.986   7.227
 1092DLPE   NH313408  31.102  18.881   7.539
 1092DLPE   PO413409  30.957  19.185   7.643
 1092DLPE   GL113410  31.106  19.456   7.285
 1092DLPE   GL213411  31.128  19.228   7.198
 1092DLPE   C1A13412  31.315  19.607   6.839
 1092DLPE   D2A13413  31.766  19.688   6.609
 1092DLPE   D3A13414  31.444  19.691   6.297
 1092DLPE   C4A13415  31.043  19.883   6.477
 1092DLPE   C1B13416  30.996  19.226   6.757
 1092DLPE   D2B13417  31.022  19.465   6.271
 1092DLPE   D3B13418  31.102  19.602   5.873
 1092DLPE   C4B13419  31.518  19.820   5.785
 1093DLPE   NH313420  35.845  35.789   7.175
 1093DLPE   PO413421  35.992  36.141   7.162
 1093DLPE   GL113422  35.777  35.984   6.787
 1093DLPE   GL213423  36.058  35.860   6.726
 1093DLPE   C1A13424  35.809  36.295   6.457
 1093DLPE   D2A13425  36.216  36.463   6.220
 1093DLPE   D3A13426  36.370  36.661   5.886
 1093DLPE   C4A13427  36.304  36.292   5.642
 1093DLPE   C1B13428  36.135  35.958   6.271
 1093DLPE   D2B13429  35.899  36.141   5.857
 1093DLPE   D3B13430  35.614  35.877   5.686
 1093DLPE   C4B13431  35.405  36.012   5.271
 1094DLPE   NH313432   1.846  11.206   8.097
 1094DLPE   PO413433   2.072  11.108   7.881
 1094DLPE   GL113434   1.964  10.743   7.573
 1094DLPE   GL213435   1.758  10.982   7.621
 1094DLPE   C1A13436   2.048  10.568   7.211
 1094DLPE   D2A13437   2.181  10.275   6.841
 1094DLPE   D3A13438   1.960  10.242   6.370
 1094DLPE   C4A13439   1.939   9.900   6.046
 1094DLPE   C1B13440   1.459  10.738   7.349
 1094DLPE   D2B13441   1.379  10.592   6.882
 1094DLPE   D3B13442   1.491  10.520   6.482
 1094DLPE   C4B13443   1.237  10.510   6.056
 1095DLPE   NH313444  35.003  19.033   7.932
 1095DLPE   PO413445  35.113  19.372   7.864
 1095DLPE   GL113446  35.240  19.411   7.352
 1095DLPE   GL213447  35.064  19.655   7.352
 1095DLPE   C1A13448  35.504  19.215   7.078
 1095DLPE   D2A13449  35.568  18.930   6.667
 1095DLPE   D3A13450  35.921  19.054   6.492
 1095DLPE   C4A13451  36.215  19.357   6.157
 1095DLPE   C1B13452  34.922  19.953   6.979
 1095DLPE   D2B13453  34.912  19.974   6.435
 1095DLPE   D3B13454  34.933  19.646   6.144
 1095DLPE   C4B13455  35.043  19.952   5.844
 1096DLPE   NH313456  20.336   8.272   7.524
 1096DLPE   PO413457  20.571   8.032   7.591
 1096DLPE   GL113458  20.308   7.787   7.348
 1096DLPE   GL213459  20.332   7.944   7.130
 1096DLPE   C1A13460  20.270   7.493   7.061
 1096DLPE   D2A13461  20.227   7.489   6.608
 1096DLPE   D3A13462  20.229   7.605   6.168
 1096DLPE   C4A13463  19.822   7.340   6.368
 1096DLPE   C1B13464  20.179   7.989   6.705
 1096DLPE   D2B13465  20.096   8.095   6.194
 1096DLPE   D3B13466  19.801   7.935   5.936
 1096DLPE   C4B13467  19.837   8.332   5.619
 1097DLPE   NH313468  23.613  18.972   8.248
 1097DLPE   PO413469  23.743  18.850   7.946
 1097DLPE   GL113470  23.655  18.986   7.566
 1097DLPE   GL213471  23.937  18.974   7.462
 1097DLPE   C1A13472  23.372  18.908   7.281
 1097DLPE   D2A13473  23.143  18.702   6.904
 1097DLPE   D3A13474  23.071  18.798   6.477
 1097DLPE   C4A13475  23.311  18.873   6.046
 1097DLPE   C1B13476  24.011  19.362   7.483
 1097DLPE   D2B13477  24.161  19.848   7.316
 1097DLPE   D3B13478  24.176  19.959   6.842
 1097DLPE   C4B13479  24.435  20.042   6.443
 1098DLPE   NH313480  17.888  26.631   7.833
 1098DLPE   PO413481  17.737  26.806   7.575
 1098DLPE   GL113482  17.704  26.713   7.194
 1098DLPE   GL213483  17.710  26.922   7.005
 1098DLPE   C1A13484  17.694  26.471   6.797
 1098DLPE   D2A13485  17.915  26.152   6.451
 1098DLPE   D3A13486  17.998  26.309   6.084
 1098DLPE   C4A13487  17.700  26.616   5.803
 1098DLPE   C1B13488  17.727  26.966   6.546
 1098DLPE   D2B13489  17.793  27.050   6.027
 1098DLPE   D3B13490  17.508  27.420   5.875
 1098DLPE   C4B13491  17.154  27.369   5.549
 1099DLPE   NH313492  33.515   2.920   7.026
 1099DLPE   PO413493  33.703   3.196   7.124
 1099DLPE   GL113494  33.594   3.542   6.898
 1099DLPE   GL213495  33.846   3.662   6.862
 1099DLPE   C1A13496  33.234   3.788   6.746
 1099DLPE   D2A13497  33.093   3.928   6.342
 1099DLPE   D3A13498  32.804   3.835   5.952
 1099DLPE   C4A13499  32.654   3.629   5.554
 1099DLPE   C1B13500  33.615   3.987   6.580
 1099DLPE   D2B13501  33.444   4.255   6.223
 1099DLPE   D3B13502  33.228   4.321   5.871
 1099DLPE   C4B13503  32.913   4.596   5.725
 1100DLPE   NH313504  12.272  29.114   7.947
 1100DLPE   PO413505  12.235  29.128   7.593
 1100DLPE   GL113506  12.359  29.390   7.294
 1100DLPE   GL213507  12.649  29.262   7.227
 1100DLPE   C1A13508  12.258  29.517   6.919
 1100DLPE   D2A13509  12.081  29.561   6.453
 1100DLPE   D3A13510  12.240  29.560   6.042
 1100DLPE   C4A13511  12.282  29.332   5.670
 1100DLPE   C1B13512  12.719  29.256   6.814
 1100DLPE   D2B13513  12.594  29.411   6.345
 1100DLPE   D3B13514  12.791  29.403   5.947
 1100DLPE   C4B13515  12.671  29.622   5.527
 1101DLPE   NH313516  12.130  22.430   7.197
 1101DLPE   PO413517  11.773  22.353   7.153
 1101DLPE   GL113518  11.541  21.995   6.900
 1101DLPE   GL213519  11.803  22.011   6.957
 1101DLPE   C1A13520  11.406  21.795   6.553
 1101DLPE   D2A13521  11.361  21.743   6.077
 1101DLPE   D3A13522  11.051  21.499   5.935
 1101DLPE   C4A13523  11.177  21.716   5.501
 1101DLPE   C1B13524  11.982  21.983   6.532
 1101DLPE   D2B13525  11.790  22.046   6.020
 1101DLPE   D3B13526  11.609  21.889   5.653
 1101DLPE   C4B13527  11.767  21.952   5.180
 1102DLPE   NH313528  15.816  29.619   7.497
 1102DLPE   PO413529  15.611  29.480   7.630
 1102DLPE   GL113530  15.422  29.539   7.306
 1102DLPE   GL213531  15.411  29.805   7.254
 1102DLPE   C1A13532  15.614  29.503   6.944
 1102DLPE   D2A13533  15.694  29.537   6.457
 1102DLPE   D3A13534  15.530  29.585   6.043
 1102DLPE   C4A13535  15.089  29.515   5.873
 1102DLPE   C1B13536  15.404  30.025   6.908
 1102DLPE   D2B13537  15.461  30.021   6.397
 1102DLPE   D3B13538  15.763  30.117   6.125
 1102DLPE   C4B13539  16.201  30.094   6.332
 1103DLPE   NH313540  35.234  16.414   8.296
 1103DLPE   PO413541  35.242  16.666   8.076
 1103DLPE   GL113542  35.328  16.564   7.754
 1103DLPE   GL213543  35.022  16.565   7.632
 1103DLPE   C1A13544  35.438  16.678   7.307
 1103DLPE   D2A13545  35.392  16.584   6.799
 1103DLPE   D3A13546  35.289  16.646   6.349
 1103DLPE   C4A13547  35.099  16.939   5.981
 1103DLPE   C1B13548  35.007  16.823   7.322
 1103DLPE   D2B13549  35.219  17.130   6.966
 1103DLPE   D3B13550  34.962  16.863   6.683
 1103DLPE   C4B13551  34.783  16.782   6.310
 1104DLPE   NH313552  10.150  28.173   6.764
 1104DLPE   PO413553  10.207  28.408   7.015
 1104DLPE   GL113554  10.427  28.553   6.752
 1104DLPE   GL213555  10.701  28.637   6.805
 1104DLPE   C1A13556  10.423  28.485   6.328
 1104DLPE   D2A13557  10.691  28.266   5.967
 1104DLPE   D3A13558  10.530  28.323   5.487
 1104DLPE   C4A13559  10.683  28.721   5.481
 1104DLPE   C1B13560  10.949  28.563   6.399
 1104DLPE   D2B13561  10.950  28.684   5.924
 1104DLPE   D3B13562  11.247  28.361   5.886
 1104DLPE   C4B13563  11.157  28.151   6.271
 1105DLPE   NH313564   6.966  24.051   7.599
 1105DLPE   PO413565   7.079  24.188   7.301
 1105DLPE   GL113566   6.940  23.990   6.895
 1105DLPE   GL213567   6.699  24.140   7.019
 1105DLPE   C1A13568   6.988  24.118   6.480
 1105DLPE   D2A13569   7.216  24.484   6.197
 1105DLPE   D3A13570   7.012  24.639   5.793
 1105DLPE   C4A13571   7.206  24.611   5.378
 1105DLPE   C1B13572   6.391  24.249   6.690
 1105DLPE   D2B13573   6.159  24.697   6.418
 1105DLPE   D3B13574   6.151  24.865   6.023
 1105DLPE   C4B13575   6.576  24.897   5.817
 1106DLPE   NH313576  19.796   6.555   8.177
 1106DLPE   PO413577  19.962   6.459   7.863
 1106DLPE   GL113578  19.858   6.389   7.436
 1106DLPE   GL213579  19.984   6.598   7.291
 1106DLPE   C1A13580  19.470   6.178   7.282
 1106DLPE   D2A13581  19.476   6.027   6.818
 1106DLPE   D3A13582  19.052   5.888   6.711
 1106DLPE   C4A13583  18.726   6.243   6.640
 1106DLPE   C1B13584  20.084   6.531   6.820
 1106DLPE   D2B13585  20.153   6.308   6.367
 1106DLPE   D3B13586  19.969   6.456   6.051
 1106DLPE   C4B13587  19.542   6.292   5.878
 1107DLPE   NH313588  10.078  33.847   7.552
 1107DLPE   PO413589  10.369  34.016   7.669
 1107DLPE   GL113590  10.460  33.900   7.254
 1107DLPE   GL213591  10.218  33.998   7.127
 1107DLPE   C1A13592  10.729  33.776   6.927
 1107DLPE   D2A13593  10.549  33.711   6.424
 1107DLPE   D3A13594  10.626  33.784   5.980
 1107DLPE   C4A13595  10.745  33.987   5.601
 1107DLPE   C1B13596  10.313  34.123   6.645
 1107DLPE   D2B13597  10.063  34.045   6.222
 1107DLPE   D3B13598  10.138  33.713   5.986
 1107DLPE   C4B13599  10.300  33.819   5.559
 1108DLPE   NH313600  34.191  19.164   8.080
 1108DLPE   PO413601  34.519  19.361   7.970
 1108DLPE   GL113602  34.658  19.516   7.658
 1108DLPE   GL213603  34.786  19.302   7.567
 1108DLPE   C1A13604  34.556  19.618   7.192
 1108DLPE   D2A13605  34.708  19.531   6.749
 1108DLPE   D3A13606  34.472  19.836   6.524
 1108DLPE   C4A13607  34.533  20.275   6.337
 1108DLPE   C1B13608  34.822  19.227   7.195
 1108DLPE   D2B13609  35.038  19.040   6.800
 1108DLPE   D3B13610  35.196  19.185   6.484
 1108DLPE   C4B13611  34.877  19.103   6.158
 1109DLPE   NH313612  23.060  26.145   7.484
 1109DLPE   PO413613  22.922  25.818   7.566
 1109DLPE   GL113614  22.793  25.648   7.163
 1109DLPE   GL213615  22.914  25.887   7.023
 1109DLPE   C1A13616  22.583  25.320   6.971
 1109DLPE   D2A13617  22.539  25.046   6.594
 1109DLPE   D3A13618  22.415  25.109   6.109
 1109DLPE   C4A13619  22.264  24.872   5.695
 1109DLPE   C1B13620  22.734  26.064   6.698
 1109DLPE   D2B13621  22.252  25.996   6.522
 1109DLPE   D3B13622  21.848  25.949   6.224
 1109DLPE   C4B13623  21.385  25.764   6.212
 1110DLPE   NH313624  11.347  17.423   7.540
 1110DLPE   PO413625  11.022  17.286   7.599
 1110DLPE   GL113626  10.960  17.270   7.176
 1110DLPE   GL213627  11.201  17.327   7.060
 1110DLPE   C1A13628  10.659  17.256   6.817
 1110DLPE   D2A13629  10.577  17.665   6.508
 1110DLPE   D3A13630  10.416  17.778   6.116
 1110DLPE   C4A13631  10.066  17.989   5.901
 1110DLPE   C1B13632  11.171  16.967   6.828
 1110DLPE   D2B13633  11.088  16.540   6.586
 1110DLPE   D3B13634  11.301  16.500   6.170
 1110DLPE   C4B13635  11.520  16.086   6.318
 1111DLPE   NH313636  18.777  12.799   7.719
 1111DLPE   PO413637  18.611  13.099   7.586
 1111DLPE   GL113638  18.628  13.258   7.209
 1111DLPE   GL213639  18.348  13.301   7.254
 1111DLPE   C1A13640  18.616  13.094   6.862
 1111DLPE   D2A13641  18.795  12.976   6.363
 1111DLPE   D3A13642  18.763  12.911   5.894
 1111DLPE   C4A13643  19.036  12.605   5.710
 1111DLPE   C1B13644  18.192  13.417   6.875
 1111DLPE   D2B13645  18.244  13.790   6.534
 1111DLPE   D3B13646  18.163  14.169   6.310
 1111DLPE   C4B13647  17.908  14.089   5.843
 1112DLPE   NH313648   4.177  10.303   7.930
 1112DLPE   PO413649   4.132  10.610   7.884
 1112DLPE   GL113650   3.816  10.773   7.621
 1112DLPE   GL213651   4.019  10.677   7.437
 1112DLPE   C1A13652   3.672  10.809   7.260
 1112DLPE   D2A13653   3.635  10.837   6.824
 1112DLPE   D3A13654   3.706  10.556   6.446
 1112DLPE   C4A13655   3.544  10.380   6.011
 1112DLPE   C1B13656   3.989  10.499   7.003
 1112DLPE   D2B13657   4.198  10.602   6.610
 1112DLPE   D3B13658   4.078  11.004   6.369
 1112DLPE   C4B13659   4.102  10.657   6.061
 1113DLPE   NH313660  33.905  19.545   7.600
 1113DLPE   PO413661  33.811  19.262   7.804
 1113DLPE   GL113662  33.826  19.000   7.543
 1113DLPE   GL213663  33.652  18.784   7.449
 1113DLPE   C1A13664  33.917  19.157   7.111
 1113DLPE   D2A13665  33.677  19.288   6.762
 1113DLPE   D3A13666  33.904  18.935   6.528
 1113DLPE   C4A13667  33.820  18.724   6.141
 1113DLPE   C1B13668  33.446  18.940   7.135
 1113DLPE   D2B13669  33.200  19.263   6.896
 1113DLPE   D3B13670  33.221  19.502   6.542
 1113DLPE   C4B13671  33.496  19.593   6.142
 1114DLPE   NH313672  19.161  13.125   7.505
 1114DLPE   PO413673  19.282  12.900   7.695
 1114DLPE   GL113674  19.490  12.813   7.312
 1114DLPE   GL213675  19.342  13.030   7.094
 1114DLPE   C1A13676  19.920  12.877   7.429
 1114DLPE   D2A13677  20.368  13.142   7.340
 1114DLPE   D3A13678  20.265  13.287   6.916
 1114DLPE   C4A13679  20.255  13.137   6.504
 1114DLPE   C1B13680  19.056  12.869   6.775
 1114DLPE   D2B13681  18.609  12.607   6.660
 1114DLPE   D3B13682  18.576  12.408   7.030
 1114DLPE   C4B13683  18.433  12.014   6.935
 1115DLPE   NH313684  13.437   6.181   7.738
 1115DLPE   PO413685  13.407   5.861   7.591
 1115DLPE   GL113686  13.640   5.932   7.203
 1115DLPE   GL213687  13.552   6.174   7.192
 1115DLPE   C1A13688  13.516   5.808   6.835
 1115DLPE   D2A13689  13.448   5.728   6.347
 1115DLPE   D3A13690  13.329   5.797   5.939
 1115DLPE   C4A13691  13.063   5.737   5.564
 1115DLPE   C1B13692  13.767   6.237   6.796
 1115DLPE   D2B13693  13.875   6.172   6.316
 1115DLPE   D3B13694  13.870   5.860   6.098
 1115DLPE   C4B13695  14.239   5.597   5.986
 1116DLPE   NH313696   6.908  13.174   7.709
 1116DLPE   PO413697   7.036  13.435   7.513
 1116DLPE   GL113698   6.907  13.273   7.194
 1116DLPE   GL213699   7.119  13.104   7.029
 1116DLPE   C1A13700   6.765  13.373   6.761
 1116DLPE   D2A13701   6.847  13.322   6.326
 1116DLPE   D3A13702   7.014  13.499   5.993
 1116DLPE   C4A13703   6.832  13.975   5.923
 1116DLPE   C1B13704   7.167  12.960   6.568
 1116DLPE   D2B13705   7.182  13.006   6.071
 1116DLPE   D3B13706   7.069  13.059   5.639
 1116DLPE   C4B13707   6.984  13.475   5.430
 1117DLPE   NH313708  20.543   8.924   7.840
 1117DLPE   PO413709  20.619   9.110   7.583
 1117DLPE   GL113710  20.275   8.914   7.400
 1117DLPE   GL213711  20.393   9.144   7.204
 1117DLPE   C1A13712  20.232   8.670   7.093
 1117DLPE   D2A13713  19.999   8.288   7.084
 1117DLPE   D3A13714  20.043   8.469   6.605
 1117DLPE   C4A13715  20.379   8.785   6.646
 1117DLPE   C1B13716  20.749   8.973   6.976
 1117DLPE   D2B13717  21.132   8.805   6.843
 1117DLPE   D3B13718  21.134   9.269   6.779
 1117DLPE   C4B13719  21.385   9.460   6.431
 1118DLPE   NH313720  13.625  34.209   7.718
 1118DLPE   PO413721  13.390  34.063   7.900
 1118DLPE   GL113722  13.320  33.946   7.495
 1118DLPE   GL213723  13.075  33.892   7.485
 1118DLPE   C1A13724  13.390  34.081   7.084
 1118DLPE   D2A13725  13.485  34.223   6.603
 1118DLPE   D3A13726  13.705  34.523   6.295
 1118DLPE   C4A13727  13.628  34.948   6.441
 1118DLPE   C1B13728  12.907  34.008   7.086
 1118DLPE   D2B13729  12.717  33.714   6.778
 1118DLPE   D3B13730  12.827  33.325   6.567
 1118DLPE   C4B13731  12.572  33.344   6.117
 1119DLPE   NH313732   9.290  16.309   7.867
 1119DLPE   PO413733   9.218  15.977   7.926
 1119DLPE   GL113734   9.532  15.968   7.679
 1119DLPE   GL213735   9.668  15.740   7.694
 1119DLPE   C1A13736   9.582  16.228   7.349
 1119DLPE   D2A13737   9.349  16.609   7.229
 1119DLPE   D3A13738   9.231  16.785   6.848
 1119DLPE   C4A13739   9.225  16.926   6.356
 1119DLPE   C1B13740   9.583  15.717   7.259
 1119DLPE   D2B13741   9.687  15.933   6.915
 1119DLPE   D3B13742   9.689  16.421   6.913
 1119DLPE   C4B13743   9.472  16.492   6.491
 1120DLPE   NH313744  12.654   0.847   7.007
 1120DLPE   PO413745  12.924   0.754   6.816
 1120DLPE   GL113746  12.921   1.060   6.428
 1120DLPE   GL213747  12.583   1.046   6.449
 1120DLPE   C1A13748  13.157   0.893   6.078
 1120DLPE   D2A13749  13.253   0.749   5.520
 1120DLPE   D3A13750  13.592   1.129   5.368
 1120DLPE   C4A13751  13.891   1.432   5.182
 1120DLPE   C1B13752  12.163   0.876   6.467
 1120DLPE   D2B13753  11.956   0.935   6.042
 1120DLPE   D3B13754  11.780   1.143   5.738
 1120DLPE   C4B13755  12.028   1.291   5.372
 1121DLPE   NH313756   0.434  26.503   7.862
 1121DLPE   PO413757   0.696  26.595   7.667
 1121DLPE   GL113758   0.868  26.418   7.377
 1121DLPE   GL213759   1.136  26.403   7.278
 1121DLPE   C1A13760   0.700  26.315   7.013
 1121DLPE   D2A13761   0.795  26.352   6.545
 1121DLPE   D3A13762   1.014  26.350   6.126
 1121DLPE   C4A13763   1.110  26.356   5.670
 1121DLPE   C1B13764   1.121  26.660   6.952
 1121DLPE   D2B13765   1.396  26.608   6.547
 1121DLPE   D3B13766   1.438  26.581   6.095
 1121DLPE   C4B13767   1.101  26.815   5.815
 1122DLPE   NH313768  21.444   9.566   7.759
 1122DLPE   PO413769  21.647   9.826   7.714
 1122DLPE   GL113770  21.782   9.786   7.413
 1122DLPE   GL213771  21.767   9.709   7.154
 1122DLPE   C1A13772  22.116   9.975   7.131
 1122DLPE   D2A13773  22.621   9.987   6.997
 1122DLPE   D3A13774  22.901  10.322   7.038
 1122DLPE   C4A13775  23.291  10.100   6.782
 1122DLPE   C1B13776  21.687   9.305   6.926
 1122DLPE   D2B13777  21.584   8.934   6.629
 1122DLPE   D3B13778  21.173   9.021   6.393
 1122DLPE   C4B13779  21.161   9.295   6.040
 1123DLPE   NH313780   2.750  19.175   7.375
 1123DLPE   PO413781   2.690  19.435   7.162
 1123DLPE   GL113782   2.868  19.396   6.777
 1123DLPE   GL213783   3.110  19.422   6.864
 1123DLPE   C1A13784   2.735  19.506   6.339
 1123DLPE   D2A13785   2.738  19.274   5.951
 1123DLPE   D3A13786   2.492  18.957   5.711
 1123DLPE   C4A13787   2.069  19.145   5.737
 1123DLPE   C1B13788   3.402  19.422   6.536
 1123DLPE   D2B13789   3.715  19.644   6.200
 1123DLPE   D3B13790   3.788  19.298   5.931
 1123DLPE   C4B13791   4.205  19.480   5.844
 1124DLPE   NH313792  20.271   5.452   7.288
 1124DLPE   PO413793  20.000   5.658   7.255
 1124DLPE   GL113794  19.613   5.680   7.097
 1124DLPE   GL213795  19.796   5.633   6.849
 1124DLPE   C1A13796  19.221   5.649   7.207
 1124DLPE   D2A13797  18.773   5.408   7.222
 1124DLPE   D3A13798  18.414   5.597   7.349
 1124DLPE   C4A13799  17.988   5.797   7.455
 1124DLPE   C1B13800  19.590   5.592   6.513
 1124DLPE   D2B13801  19.549   5.502   6.044
 1124DLPE   D3B13802  19.234   5.198   5.808
 1124DLPE   C4B13803  18.795   5.215   5.786
 1125DLPE   NH313804  13.249  32.523   7.906
 1125DLPE   PO413805  13.465  32.230   7.759
 1125DLPE   GL113806  13.521  32.247   7.307
 1125DLPE   GL213807  13.292  32.346   7.239
 1125DLPE   C1A13808  13.658  32.117   6.879
 1125DLPE   D2A13809  13.605  32.282   6.455
 1125DLPE   D3A13810  13.225  32.331   6.245
 1125DLPE   C4A13811  13.404  32.376   5.822
 1125DLPE   C1B13812  13.387  32.590   6.944
 1125DLPE   D2B13813  13.465  32.802   6.556
 1125DLPE   D3B13814  13.692  32.718   6.132
 1125DLPE   C4B13815  13.946  33.119   6.237
 1126DLPE   NH313816  30.834  34.995   7.423
 1126DLPE   PO413817  30.505  35.185   7.423
 1126DLPE   GL113818  30.580  35.444   7.134
 1126DLPE   GL213819  30.823  35.363   7.168
 1126DLPE   C1A13820  30.483  35.351   6.712
 1126DLPE   D2A13821  30.269  35.393   6.284
 1126DLPE   D3A13822  30.427  35.366   5.872
 1126DLPE   C4A13823  30.677  35.555   5.532
 1126DLPE   C1B13824  30.987  35.372   6.733
 1126DLPE   D2B13825  31.295  35.405   6.378
 1126DLPE   D3B13826  31.035  35.492   6.039
 1126DLPE   C4B13827  30.984  35.111   5.659
 1127DLPE   NH313828   7.697  32.511   7.576
 1127DLPE   PO413829   8.023  32.371   7.673
 1127DLPE   GL113830   8.104  32.340   7.249
 1127DLPE   GL213831   7.779  32.285   7.170
 1127DLPE   C1A13832   8.307  32.128   6.871
 1127DLPE   D2A13833   8.687  31.991   6.638
 1127DLPE   D3A13834   8.555  31.871   6.214
 1127DLPE   C4A13835   8.705  31.898   5.804
 1127DLPE   C1B13836   7.765  32.172   6.770
 1127DLPE   D2B13837   7.591  32.007   6.337
 1127DLPE   D3B13838   7.650  31.935   5.880
 1127DLPE   C4B13839   7.389  31.629   5.570
 1128DLPE   NH313840  30.779  14.714   8.066
 1128DLPE   PO413841  30.443  14.744   7.929
 1128DLPE   GL113842  30.277  14.950   7.592
 1128DLPE   GL213843  30.304  14.671   7.417
 1128DLPE   C1A13844  30.192  15.114   7.226
 1128DLPE   D2A13845  30.498  15.409   6.970
 1128DLPE   D3A13846  30.869  15.465   6.773
 1128DLPE   C4A13847  30.796  15.501   6.370
 1128DLPE   C1B13848  30.349  14.634   7.021
 1128DLPE   D2B13849  30.656  14.932   6.804
 1128DLPE   D3B13850  30.477  15.125   6.365
 1128DLPE   C4B13851  30.397  14.887   5.964
 1129DLPE   NH313852  15.878  30.000   7.866
 1129DLPE   PO413853  15.929  30.101   7.534
 1129DLPE   GL113854  15.974  29.997   7.139
 1129DLPE   GL213855  16.245  30.140   7.202
 1129DLPE   C1A13856  15.959  29.889   6.726
 1129DLPE   D2A13857  16.324  29.530   6.539
 1129DLPE   D3A13858  16.376  29.596   6.103
 1129DLPE   C4A13859  16.460  29.546   5.634
 1129DLPE   C1B13860  16.261  30.478   6.922
 1129DLPE   D2B13861  16.318  30.646   6.456
 1129DLPE   D3B13862  16.154  30.521   6.076
 1129DLPE   C4B13863  16.116  30.163   5.774
 1130DLPE   NH313864  31.641  12.363   7.489
 1130DLPE   PO413865  31.342  12.319   7.643
 1130DLPE   GL113866  31.215  12.267   7.214
 1130DLPE   GL213867  31.073  11.991   7.180
 1130DLPE   C1A13868  31.344  12.228   6.742
 1130DLPE   D2A13869  31.679  11.903   6.556
 1130DLPE   D3A13870  31.876  12.260   6.405
 1130DLPE   C4A13871  31.563  12.524   6.104
 1130DLPE   C1B13872  30.689  12.107   6.977
 1130DLPE   D2B13873  30.475  11.985   6.462
 1130DLPE   D3B13874  30.438  12.218   6.100
 1130DLPE   C4B13875  30.536  12.709   6.192
 1131DLPE   NH313876  13.787  30.990   7.957
 1131DLPE   PO413877  14.114  31.039   7.855
 1131DLPE   GL113878  14.140  31.246   7.581
 1131DLPE   GL213879  13.981  31.465   7.463
 1131DLPE   C1A13880  14.106  31.099   7.145
 1131DLPE   D2A13881  14.234  30.669   6.937
 1131DLPE   D3A13882  14.398  30.344   6.741
 1131DLPE   C4A13883  14.437  29.955   6.566
 1131DLPE   C1B13884  13.724  31.315   7.044
 1131DLPE   D2B13885  13.977  31.116   6.667
 1131DLPE   D3B13886  13.923  30.659   6.504
 1131DLPE   C4B13887  13.866  30.249   6.557
 1132DLPE   NH313888  23.688  25.583   7.189
 1132DLPE   PO413889  23.345  25.642   7.191
 1132DLPE   GL113890  23.236  25.729   6.821
 1132DLPE   GL213891  23.282  26.004   6.770
 1132DLPE   C1A13892  22.882  25.583   6.584
 1132DLPE   D2A13893  22.425  25.539   6.371
 1132DLPE   D3A13894  22.296  25.645   5.930
 1132DLPE   C4A13895  22.127  26.056   5.748
 1132DLPE   C1B13896  23.262  25.951   6.375
 1132DLPE   D2B13897  22.877  25.819   6.110
 1132DLPE   D3B13898  22.522  26.040   6.126
 1132DLPE   C4B13899  22.311  26.472   6.048
 1133DLPE   NH313900   3.538  19.334   7.096
 1133DLPE   PO413901   3.244  19.226   7.276
 1133DLPE   GL113902   3.178  18.979   7.016
 1133DLPE   GL213903   2.886  18.861   7.105
 1133DLPE   C1A13904   3.081  18.964   6.623
 1133DLPE   D2A13905   3.062  19.003   6.174
 1133DLPE   D3A13906   3.238  19.403   6.042
 1133DLPE   C4A13907   3.434  19.864   5.909
 1133DLPE   C1B13908   2.569  18.885   6.724
 1133DLPE   D2B13909   2.325  18.643   6.259
 1133DLPE   D3B13910   2.162  18.537   5.879
 1133DLPE   C4B13911   2.055  18.715   5.461
 1134DLPE   NH313912   4.263  18.844   7.269
 1134DLPE   PO413913   4.480  19.126   7.323
 1134DLPE   GL113914   4.400  19.478   7.051
 1134DLPE   GL213915   4.668  19.563   7.000
 1134DLPE   C1A13916   4.324  19.488   6.625
 1134DLPE   D2A13917   4.410  19.080   6.313
 1134DLPE   D3A13918   4.429  19.042   5.890
 1134DLPE   C4A13919   4.465  18.658   5.612
 1134DLPE   C1B13920   4.801  19.473   6.532
 1134DLPE   D2B13921   4.736  19.492   5.999
 1134DLPE   D3B13922   4.763  19.272   5.593
 1134DLPE   C4B13923   4.542  19.503   5.203
 1135DLPE   NH313924   1.525  20.547   7.774
 1135DLPE   PO413925   1.627  20.253   7.916
 1135DLPE   GL113926   1.909  20.236   7.589
 1135DLPE   GL213927   1.812  20.415   7.418
 1135DLPE   C1A13928   2.138  19.879   7.490
 1135DLPE   D2A13929   2.149  19.511   7.094
 1135DLPE   D3A13930   2.369  19.465   6.708
 1135DLPE   C4A13931   2.088  19.400   6.285
 1135DLPE   C1B13932   2.042  20.547   7.095
 1135DLPE   D2B13933   2.032  20.441   6.586
 1135DLPE   D3B13934   2.168  20.026   6.657
 1135DLPE   C4B13935   1.918  19.905   6.261
 1136DLPE   NH313936  11.412  15.756   7.403
 1136DLPE   PO413937  11.180  15.514   7.463
 1136DLPE   GL113938  10.943  15.639   7.184
 1136DLPE   GL213939  10.875  15.297   7.137
 1136DLPE   C1A13940  11.095  16.014   6.990
 1136DLPE   D2A13941  11.547  16.081   6.883
 1136DLPE   D3A13942  11.658  15.673   6.656
 1136DLPE   C4A13943  11.155  15.768   6.571
 1136DLPE   C1B13944  10.986  15.231   6.723
 1136DLPE   D2B13945  11.262  15.182   6.374
 1136DLPE   D3B13946  11.215  15.009   5.921
 1136DLPE   C4B13947  10.846  14.768   5.880
 1137DLPE   NH313948   5.433  22.429   7.599
 1137DLPE   PO413949   5.172  22.340   7.412
 1137DLPE   GL113950   5.269  22.258   6.940
 1137DLPE   GL213951   5.473  22.468   7.050
 1137DLPE   C1A13952   5.480  21.876   6.920
 1137DLPE   D2A13953   5.882  21.608   6.909
 1137DLPE   D3A13954   6.070  21.537   6.538
 1137DLPE   C4A13955   6.163  21.839   6.162
 1137DLPE   C1B13956   5.607  22.718   6.645
 1137DLPE   D2B13957   5.719  23.011   6.227
 1137DLPE   D3B13958   5.614  23.054   5.818
 1137DLPE   C4B13959   5.226  22.784   5.864
 1138DLPE   NH313960   3.092  32.666   8.385
 1138DLPE   PO413961   3.213  32.400   8.219
 1138DLPE   GL113962   3.418  32.453   7.897
 1138DLPE   GL213963   3.551  32.179   7.782
 1138DLPE   C1A13964   3.355  32.692   7.568
 1138DLPE   D2A13965   3.461  33.022   7.231
 1138DLPE   D3A13966   3.494  32.994   6.773
 1138DLPE   C4A13967   3.744  32.716   6.484
 1138DLPE   C1B13968   3.754  32.343   7.480
 1138DLPE   D2B13969   4.000  32.769   7.370
 1138DLPE   D3B13970   3.841  32.677   6.948
 1138DLPE   C4B13971   3.441  32.503   7.038
 1139DLPE   NH313972   4.905  13.186   8.203
 1139DLPE   PO413973   4.636  13.239   7.964
 1139DLPE   GL113974   4.776  13.152   7.531
 1139DLPE   GL213975   4.521  13.186   7.481
 1139DLPE   C1A13976   5.132  13.308   7.322
 1139DLPE   D2A13977   5.392  13.198   6.863
 1139DLPE   D3A13978   5.361  13.001   6.469
 1139DLPE   C4A13979   5.434  13.433   6.369
 1139DLPE   C1B13980   4.224  13.496   7.272
 1139DLPE   D2B13981   3.885  13.767   7.446
 1139DLPE   D3B13982   3.773  13.799   7.004
 1139DLPE   C4B13983   3.298  13.748   6.969
 1140DLPE   NH313984  34.519  18.064   8.310
 1140DLPE   PO413985  34.349  18.316   8.110
 1140DLPE   GL113986  34.457  18.424   7.655
 1140DLPE   GL213987  34.534  18.239   7.691
 1140DLPE   C1A13988  34.715  18.675   7.347
 1140DLPE   D2A13989  34.804  18.587   6.889
 1140DLPE   D3A13990  35.007  18.662   6.488
 1140DLPE   C4A13991  35.273  18.728   6.103
 1140DLPE   C1B13992  34.703  18.053   7.327
 1140DLPE   D2B13993  34.773  17.700   6.982
 1140DLPE   D3B13994  35.104  17.586   6.675
 1140DLPE   C4B13995  34.909  17.302   6.317
 1141DLPE   NH313996  29.448   7.112   7.227
 1141DLPE   PO413997  29.096   7.027   7.111
 1141DLPE   GL113998  29.183   7.022   6.776
 1141DLPE   GL213999  29.485   6.967   6.762
 1141DLPE   C1A14000  29.212   7.085   6.355
 1141DLPE   D2A14001  28.960   7.137   5.967
 1141DLPE   D3A14002  28.994   6.736   5.812
 1141DLPE   C4A14003  28.779   6.342   5.662
 1141DLPE   C1B14004  29.706   6.965   6.359
 1141DLPE   D2B14005  29.576   7.246   6.006
 1141DLPE   D3B14006  29.368   7.141   5.696
 1141DLPE   C4B14007  29.011   6.985   5.384
 1142DLPE   NH314008  10.081   0.873   7.070
 1142DLPE   PO414009  10.373   0.692   6.998
 1142DLPE   GL114010  10.458   0.828   6.694
 1142DLPE   GL214011  10.275   1.053   6.600
 1142DLPE   C1A14012  10.746   0.905   6.419
 1142DLPE   D2A14013  10.729   0.819   5.893
 1142DLPE   D3A14014  10.699   0.616   5.507
 1142DLPE   C4A14015  10.834   0.971   5.277
 1142DLPE   C1B14016  10.291   0.957   6.148
 1142DLPE   D2B14017  10.220   0.950   5.662
 1142DLPE   D3B14018  10.256   0.938   5.228
 1142DLPE   C4B14019  10.043   1.121   4.830
 1143DLPE   NH314020  23.685  18.298   7.879
 1143DLPE   PO414021  24.031  18.393   7.925
 1143DLPE   GL114022  24.117  18.552   7.487
 1143DLPE   GL214023  23.878  18.565   7.465
 1143DLPE   C1A14024  24.172  18.828   7.095
 1143DLPE   D2A14025  24.076  19.030   6.629
 1143DLPE   D3A14026  23.914  18.919   6.215
 1143DLPE   C4A14027  23.764  18.665   5.895
 1143DLPE   C1B14028  23.698  18.584   7.082
 1143DLPE   D2B14029  23.700  18.720   6.647
 1143DLPE   D3B14030  23.549  19.097   6.505
 1143DLPE   C4B14031  23.340  19.295   6.837
 1144DLPE   NH314032  12.810  12.569   7.430
 1144DLPE   PO414033  13.113  12.358   7.498
 1144DLPE   GL114034  13.163  12.428   7.063
 1144DLPE   GL214035  13.437  12.494   7.067
 1144DLPE   C1A14036  13.032  12.179   6.635
 1144DLPE   D2A14037  13.256  11.954   6.237
 1144DLPE   D3A14038  13.189  11.599   5.979
 1144DLPE   C4A14039  12.947  11.468   5.600
 1144DLPE   C1B14040  13.493  12.442   6.616
 1144DLPE   D2B14041  13.566  12.305   6.165
 1144DLPE   D3B14042  13.653  12.432   5.774
 1144DLPE   C4B14043  13.978  12.645   5.483
 1145DLPE   NH314044  30.228   5.036   7.923
 1145DLPE   PO414045  29.922   4.836   7.834
 1145DLPE   GL114046  30.084   4.759   7.534
 1145DLPE   GL214047  30.283   5.036   7.452
 1145DLPE   C1A14048  30.014   4.604   7.098
 1145DLPE   D2A14049  29.775   4.520   6.710
 1145DLPE   D3A14050  29.865   4.561   6.345
 1145DLPE   C4A14051  29.620   4.574   5.945
 1145DLPE   C1B14052  30.374   4.971   6.999
 1145DLPE   D2B14053  30.542   5.030   6.600
 1145DLPE   D3B14054  30.341   4.915   6.198
 1145DLPE   C4B14055  30.504   5.160   5.798
 1146DLPE   NH314056  13.125  31.856   7.619
 1146DLPE   PO414057  12.972  32.104   7.868
 1146DLPE   GL114058  12.917  32.279   7.513
 1146DLPE   GL214059  12.789  32.072   7.416
 1146DLPE   C1A14060  12.903  32.599   7.183
 1146DLPE   D2A14061  12.526  32.704   6.924
 1146DLPE   D3A14062  12.196  32.640   6.691
 1146DLPE   C4A14063  11.785  32.888   6.469
 1146DLPE   C1B14064  13.084  31.980   7.075
 1146DLPE   D2B14065  13.157  31.983   6.633
 1146DLPE   D3B14066  12.708  31.978   6.413
 1146DLPE   C4B14067  12.524  31.832   6.004
 1147DLPE   NH314068  10.129   8.672   7.386
 1147DLPE   PO414069  10.237   8.426   7.162
 1147DLPE   GL114070  10.349   8.499   6.790
 1147DLPE   GL214071  10.623   8.396   6.863
 1147DLPE   C1A14072  10.172   8.692   6.494
 1147DLPE   D2A14073  10.517   8.787   6.097
 1147DLPE   D3A14074  10.439   8.616   5.669
 1147DLPE   C4A14075  10.259   8.569   5.213
 1147DLPE   C1B14076  10.795   8.617   6.473
 1147DLPE   D2B14077  11.019   8.908   6.146
 1147DLPE   D3B14078  10.968   8.475   6.059
 1147DLPE   C4B14079  11.275   8.425   6.436
 1148DLPE   NH314080   1.373  24.295   7.535
 1148DLPE   PO414081   1.129  24.415   7.764
 1148DLPE   GL114082   0.842  24.223   7.528
 1148DLPE   GL214083   1.000  24.286   7.278
 1148DLPE   C1A14084   0.546  23.965   7.338
 1148DLPE   D2A14085   0.275  23.896   6.948
 1148DLPE   D3A14086  -0.084  24.087   6.809
 1148DLPE   C4A14087  -0.501  24.204   6.638
 1148DLPE   C1B14088   0.672  24.559   7.037
 1148DLPE   D2B14089   0.386  24.310   6.712
 1148DLPE   D3B14090   0.418  24.389   6.279
 1148DLPE   C4B14091   0.702  24.169   6.009
 1149DLPE   NH314092  24.015   9.316   7.402
 1149DLPE   PO414093  23.825   9.002   7.346
 1149DLPE   GL114094  23.689   9.315   7.060
 1149DLPE   GL214095  23.456   9.317   7.126
 1149DLPE   C1A14096  23.940   9.637   6.950
 1149DLPE   D2A14097  23.793  10.070   6.798
 1149DLPE   D3A14098  23.581  10.340   6.499
 1149DLPE   C4A14099  23.716  10.268   6.035
 1149DLPE   C1B14100  23.307   9.216   6.704
 1149DLPE   D2B14101  23.109   9.340   6.238
 1149DLPE   D3B14102  23.027   9.700   5.983
 1149DLPE   C4B14103  23.077   9.921   5.570
 1150DLPE   NH314104  20.742  11.118   7.495
 1150DLPE   PO414105  20.414  11.133   7.610
 1150DLPE   GL114106  20.352  10.910   7.232
 1150DLPE   GL214107  20.339  11.159   7.081
 1150DLPE   C1A14108  20.200  10.819   6.852
 1150DLPE   D2A14109  19.819  10.862   6.509
 1150DLPE   D3A14110  19.863  11.167   6.190
 1150DLPE   C4A14111  20.168  11.243   5.876
 1150DLPE   C1B14112  20.001  11.344   6.843
 1150DLPE   D2B14113  20.140  11.530   6.449
 1150DLPE   D3B14114  19.816  11.659   6.244
 1150DLPE   C4B14115  19.482  11.798   5.952
 1151DLPE   NH314116  19.722   2.397   7.803
 1151DLPE   PO414117  19.631   2.663   7.594
 1151DLPE   GL114118  19.278   2.554   7.407
 1151DLPE   GL214119  19.372   2.264   7.403
 1151DLPE   C1A14120  19.332   2.653   6.990
 1151DLPE   D2A14121  19.260   2.645   6.540
 1151DLPE   D3A14122  19.500   2.435   6.183
 1151DLPE   C4A14123  19.334   2.147   5.888
 1151DLPE   C1B14124  19.468   2.216   6.918
 1151DLPE   D2B14125  19.400   1.974   6.447
 1151DLPE   D3B14126  19.827   1.987   6.356
 1151DLPE   C4B14127  19.929   2.109   5.901
 1152DLPE   NH314128  14.383   6.305   7.635
 1152DLPE   PO414129  14.414   6.043   7.844
 1152DLPE   GL114130  14.203   5.948   7.431
 1152DLPE   GL214131  14.258   5.666   7.551
 1152DLPE   C1A14132  14.051   5.931   7.067
 1152DLPE   D2A14133  14.350   6.205   6.817
 1152DLPE   D3A14134  14.308   5.919   6.454
 1152DLPE   C4A14135  13.916   5.722   6.574
 1152DLPE   C1B14136  14.420   5.556   7.219
 1152DLPE   D2B14137  14.342   5.063   7.011
 1152DLPE   D3B14138  14.573   5.096   6.591
 1152DLPE   C4B14139  14.709   5.111   6.152
 1153DLPE   NH314140  35.793  34.046   7.637
 1153DLPE   PO414141  35.547  34.009   7.349
 1153DLPE   GL114142  35.382  33.858   7.005
 1153DLPE   GL214143  35.637  33.719   7.005
 1153DLPE   C1A14144  35.005  33.776   6.794
 1153DLPE   D2A14145  34.720  33.809   6.375
 1153DLPE   D3A14146  34.483  33.565   6.019
 1153DLPE   C4A14147  34.457  33.959   5.729
 1153DLPE   C1B14148  35.816  33.725   6.609
 1153DLPE   D2B14149  35.663  33.614   6.108
 1153DLPE   D3B14150  35.530  33.336   5.797
 1153DLPE   C4B14151  35.363  33.770   5.590
 1154DLPE   NH314152   1.098  26.446   7.843
 1154DLPE   PO414153   1.327  26.681   8.003
 1154DLPE   GL114154   1.572  26.549   7.633
 1154DLPE   GL214155   1.817  26.617   7.718
 1154DLPE   C1A14156   1.629  26.792   7.210
 1154DLPE   D2A14157   1.984  27.099   7.113
 1154DLPE   D3A14158   2.326  27.069   6.830
 1154DLPE   C4A14159   2.814  26.841   6.882
 1154DLPE   C1B14160   1.953  26.404   7.307
 1154DLPE   D2B14161   2.197  25.974   7.144
 1154DLPE   D3B14162   2.356  25.506   7.134
 1154DLPE   C4B14163   2.443  25.386   6.648
 1155DLPE   NH314164   8.624  31.932   7.607
 1155DLPE   PO414165   8.426  32.155   7.516
 1155DLPE   GL114166   8.617  32.391   7.238
 1155DLPE   GL214167   8.538  32.588   7.388
 1155DLPE   C1A14168   8.647  32.532   6.828
 1155DLPE   D2A14169   8.448  32.362   6.364
 1155DLPE   D3A14170   8.456  32.317   5.920
 1155DLPE   C4A14171   8.918  32.393   5.871
 1155DLPE   C1B14172   8.274  32.815   7.137
 1155DLPE   D2B14173   8.120  33.195   6.833
 1155DLPE   D3B14174   7.903  33.004   6.472
 1155DLPE   C4B14175   7.820  32.929   6.027
 1156DLPE   NH314176   2.358  10.637   7.880
 1156DLPE   PO414177   2.488  10.338   7.931
 1156DLPE   GL114178   2.414  10.069   7.685
 1156DLPE   GL214179   2.711  10.005   7.583
 1156DLPE   C1A14180   2.219  10.017   7.313
 1156DLPE   D2A14181   2.300   9.764   6.865
 1156DLPE   D3A14182   2.102   9.744   6.536
 1156DLPE   C4A14183   2.162   9.308   6.245
 1156DLPE   C1B14184   2.746   9.838   7.185
 1156DLPE   D2B14185   2.728   9.308   7.327
 1156DLPE   D3B14186   2.807   9.106   6.936
 1156DLPE   C4B14187   2.554   8.771   6.689
 1157DLPE   NH314188   1.212  21.708   8.155
 1157DLPE   PO414189   1.204  21.488   7.895
 1157DLPE   GL114190   1.497  21.260   7.576
 1157DLPE   GL214191   1.253  21.341   7.443
 1157DLPE   C1A14192   1.682  20.957   7.371
 1157DLPE   D2A14193   1.784  20.910   6.863
 1157DLPE   D3A14194   1.847  21.185   6.516
 1157DLPE   C4A14195   1.730  21.309   6.130
 1157DLPE   C1B14196   1.020  21.041   7.291
 1157DLPE   D2B14197   1.031  20.583   7.134
 1157DLPE   D3B14198   0.837  20.651   6.776
 1157DLPE   C4B14199   1.098  20.560   6.383
 1158DLPE   NH314200  23.286  20.040   7.997
 1158DLPE   PO414201  23.181  19.750   7.819
 1158DLPE   GL114202  22.939  19.695   7.472
 1158DLPE   GL214203  22.981  19.989   7.527
 1158DLPE   C1A14204  22.618  19.522   7.214
 1158DLPE   D2A14205  22.431  19.196   6.969
 1158DLPE   D3A14206  22.253  19.135   6.617
 1158DLPE   C4A14207  21.776  19.158   6.422
 1158DLPE   C1B14208  22.799  20.065   7.125
 1158DLPE   D2B14209  22.522  20.460   6.907
 1158DLPE   D3B14210  22.339  20.384   6.456
 1158DLPE   C4B14211  22.540  20.227   6.080
 1159DLPE   NH314212  21.899  24.384   7.668
 1159DLPE   PO414213  21.859  24.060   7.550
 1159DLPE   GL114214  21.863  23.966   7.131
 1159DLPE   GL214215  21.674  24.175   7.070
 1159DLPE   C1A14216  21.842  23.780   6.772
 1159DLPE   D2A14217  21.775  23.682   6.335
 1159DLPE   D3A14218  21.711  23.294   6.100
 1159DLPE   C4A14219  22.069  23.061   6.042
 1159DLPE   C1B14220  21.822  24.605   7.106
 1159DLPE   D2B14221  22.208  24.955   7.048
 1159DLPE   D3B14222  22.108  24.632   6.710
 1159DLPE   C4B14223  22.171  24.692   6.241
 1160SSM    NC314224  26.417  26.651   7.369
 1160SSM    PO414225  26.173  26.547   7.682
 1160SSM    OH114226  25.893  26.464   7.428
 1160SSM    AM214227  25.988  26.692   7.244
 1160SSM    T1A14228  25.736  26.352   7.126
 1160SSM    C2A14229  25.721  26.232   6.754
 1160SSM    C3A14230  25.675  26.192   6.307
 1160SSM    C4A14231  25.531  26.170   5.826
 1160SSM    C1B14232  26.031  26.717   6.884
 1160SSM    C2B14233  25.932  26.576   6.389
 1160SSM    C3B14234  26.045  26.484   5.927
 1160SSM    C4B14235  25.837  26.489   5.462
 1161SSM    NC314236  16.524  24.026   7.897
 1161SSM    PO414237  16.516  24.368   7.692
 1161SSM    OH114238  16.183  24.369   7.428
 1161SSM    AM214239  16.402  24.325   7.225
 1161SSM    T1A14240  16.020  24.309   7.140
 1161SSM    C2A14241  15.840  24.380   6.783
 1161SSM    C3A14242  15.662  24.243   6.364
 1161SSM    C4A14243  15.473  23.942   5.985
 1161SSM    C1B14244  16.374  24.411   6.855
 1161SSM    C2B14245  16.223  24.373   6.338
 1161SSM    C3B14246  16.387  24.294   5.828
 1161SSM    C4B14247  16.572  24.246   5.374
 1162SSM    NC314248  12.255   4.410   7.190
 1162SSM    PO414249  12.617   4.244   7.317
 1162SSM    OH114250  12.900   4.037   7.292
 1162SSM    AM214251  12.814   3.927   7.017
 1162SSM    T1A14252  13.220   3.905   7.155
 1162SSM    C2A14253  13.379   3.733   6.845
 1162SSM    C3A14254  13.372   3.738   6.371
 1162SSM    C4A14255  13.468   3.936   5.979
 1162SSM    C1B14256  12.867   3.834   6.630
 1162SSM    C2B14257  12.938   3.935   6.138
 1162SSM    C3B14258  13.114   3.737   5.683
 1162SSM    C4B14259  13.466   4.031   5.403
 1163SSM    NC314260   9.527   4.138   7.616
 1163SSM    PO414261   9.441   4.315   7.323
 1163SSM    OH114262   9.343   4.027   7.043
 1163SSM    AM214263   9.525   4.203   6.881
 1163SSM    T1A14264   9.181   4.049   6.726
 1163SSM    C2A14265   9.145   4.030   6.303
 1163SSM    C3A14266   9.087   3.965   5.883
 1163SSM    C4A14267   9.064   3.932   5.411
 1163SSM    C1B14268   9.491   4.421   6.481
 1163SSM    C2B14269   9.423   4.439   5.932
 1163SSM    C3B14270   9.266   4.560   5.429
 1163SSM    C4B14271   9.264   4.990   5.147
 1164SSM    NC314272  18.921  33.908   7.644
 1164SSM    PO414273  18.735  33.586   7.519
 1164SSM    OH114274  18.936  33.476   7.202
 1164SSM    AM214275  19.034  33.761   7.171
 1164SSM    T1A14276  18.976  33.497   6.858
 1164SSM    C2A14277  19.024  33.606   6.440
 1164SSM    C3A14278  18.867  33.672   5.996
 1164SSM    C4A14279  19.050  33.404   5.557
 1164SSM    C1B14280  19.126  34.088   6.892
 1164SSM    C2B14281  19.349  33.991   6.436
 1164SSM    C3B14282  19.386  33.834   5.947
 1164SSM    C4B14283  19.506  33.551   5.526
 1165SSM    NC314284  28.042  18.748   7.101
 1165SSM    PO414285  28.345  18.465   7.192
 1165SSM    OH114286  28.505  18.382   6.870
 1165SSM    AM214287  28.476  18.696   6.769
 1165SSM    T1A14288  28.417  18.306   6.517
 1165SSM    C2A14289  28.358  18.483   6.136
 1165SSM    C3A14290  28.546  18.769   5.801
 1165SSM    C4A14291  28.750  19.119   5.612
 1165SSM    C1B14292  28.541  18.886   6.477
 1165SSM    C2B14293  28.468  19.230   6.191
 1165SSM    C3B14294  28.456  19.518   5.787
 1165SSM    C4B14295  28.261  19.861   5.511
 1166SSM    NC314296  23.438  31.257   7.558
 1166SSM    PO414297  23.768  31.281   7.324
 1166SSM    OH114298  23.586  31.176   7.027
 1166SSM    AM214299  23.348  31.332   7.072
 1166SSM    T1A14300  23.466  31.126   6.682
 1166SSM    C2A14301  23.401  31.151   6.280
 1166SSM    C3A14302  23.274  31.217   5.812
 1166SSM    C4A14303  23.430  31.243   5.338
 1166SSM    C1B14304  23.074  31.448   6.874
 1166SSM    C2B14305  22.847  31.308   6.388
 1166SSM    C3B14306  22.775  31.301   5.919
 1166SSM    C4B14307  22.925  31.339   5.488
 1167SSM    NC314308  16.067  32.412   7.305
 1167SSM    PO414309  16.369  32.229   7.346
 1167SSM    OH114310  16.185  32.048   7.081
 1167SSM    AM214311  16.190  32.282   6.870
 1167SSM    T1A14312  16.041  31.904   6.795
 1167SSM    C2A14313  15.851  31.914   6.446
 1167SSM    C3A14314  15.657  32.161   6.034
 1167SSM    C4A14315  15.557  32.215   5.567
 1167SSM    C1B14316  16.079  32.339   6.440
 1167SSM    C2B14317  16.100  32.340   5.906
 1167SSM    C3B14318  16.026  32.063   5.507
 1167SSM    C4B14319  16.167  31.913   5.049
 1168SSM    NC314320  10.270  19.483   6.825
 1168SSM    PO414321  10.518  19.738   7.028
 1168SSM    OH114322  10.602  20.036   6.818
 1168SSM    AM214323  10.472  19.897   6.592
 1168SSM    T1A14324  10.622  20.327   6.554
 1168SSM    C2A14325  10.508  20.420   6.198
 1168SSM    C3A14326  10.631  20.245   5.759
 1168SSM    C4A14327  10.780  20.046   5.310
 1168SSM    C1B14328  10.419  19.852   6.192
 1168SSM    C2B14329  10.422  19.682   5.732
 1168SSM    C3B14330  10.709  19.448   5.375
 1168SSM    C4B14331  11.037  19.542   5.062
 1169SSM    NC314332  28.768  22.120   7.659
 1169SSM    PO414333  28.661  22.125   7.255
 1169SSM    OH114334  28.917  22.376   7.040
 1169SSM    AM214335  28.668  22.336   6.841
 1169SSM    T1A14336  29.055  22.438   6.744
 1169SSM    C2A14337  28.850  22.557   6.445
 1169SSM    C3A14338  28.795  22.657   5.984
 1169SSM    C4A14339  28.762  22.795   5.485
 1169SSM    C1B14340  28.456  22.073   6.556
 1169SSM    C2B14341  28.600  21.704   6.172
 1169SSM    C3B14342  28.761  21.795   5.700
 1169SSM    C4B14343  28.749  21.886   5.284
 1170SSM    NC314344  18.496  27.222   7.500
 1170SSM    PO414345  18.707  27.007   7.691
 1170SSM    OH114346  18.700  26.722   7.438
 1170SSM    AM214347  18.573  26.906   7.231
 1170SSM    T1A14348  18.618  26.539   7.183
 1170SSM    C2A14349  18.514  26.334   6.861
 1170SSM    C3A14350  18.357  26.232   6.389
 1170SSM    C4A14351  18.522  26.226   5.896
 1170SSM    C1B14352  18.546  27.150   6.949
 1170SSM    C2B14353  18.811  26.963   6.539
 1170SSM    C3B14354  19.117  26.780   6.179
 1170SSM    C4B14355  19.116  26.755   5.640
 1171SSM    NC314356   2.316   4.157   7.970
 1171SSM    PO414357   2.569   4.255   7.698
 1171SSM    OH114358   2.577   4.214   7.334
 1171SSM    AM214359   2.868   4.293   7.316
 1171SSM    T1A14360   2.722   4.082   7.027
 1171SSM    C2A14361   2.897   4.005   6.658
 1171SSM    C3A14362   2.951   3.912   6.206
 1171SSM    C4A14363   2.995   3.826   5.691
 1171SSM    C1B14364   3.166   4.007   7.173
 1171SSM    C2B14365   3.574   4.068   6.831
 1171SSM    C3B14366   3.733   4.096   6.369
 1171SSM    C4B14367   3.933   4.079   5.896
 1172SSM    NC314368  18.729  31.168   7.361
 1172SSM    PO414369  18.522  31.529   7.343
 1172SSM    OH114370  18.377  31.317   7.072
 1172SSM    AM214371  18.649  31.365   6.926
 1172SSM    T1A14372  18.308  31.236   6.738
 1172SSM    C2A14373  18.303  31.067   6.362
 1172SSM    C3A14374  18.054  30.915   5.933
 1172SSM    C4A14375  17.884  30.969   5.515
 1172SSM    C1B14376  18.733  31.387   6.520
 1172SSM    C2B14377  18.864  31.298   6.030
 1172SSM    C3B14378  19.018  31.224   5.554
 1172SSM    C4B14379  18.808  31.317   5.129
 1173SSM    NC314380  34.779  25.794   8.045
 1173SSM    PO414381  34.632  25.535   7.788
 1173SSM    OH114382  34.701  25.623   7.425
 1173SSM    AM214383  34.449  25.797   7.389
 1173SSM    T1A14384  34.586  25.571   7.097
 1173SSM    C2A14385  34.660  25.476   6.716
 1173SSM    C3A14386  34.713  25.327   6.240
 1173SSM    C4A14387  35.024  25.341   5.941
 1173SSM    C1B14388  34.204  25.846   7.060
 1173SSM    C2B14389  33.912  25.873   6.628
 1173SSM    C3B14390  33.641  25.963   6.240
 1173SSM    C4B14391  33.498  26.275   5.869
 1174SSM    NC314392   0.450   6.481   7.895
 1174SSM    PO414393   0.355   6.758   7.616
 1174SSM    OH114394   0.323   6.786   7.231
 1174SSM    AM214395   0.152   6.523   7.239
 1174SSM    T1A14396   0.213   6.900   6.946
 1174SSM    C2A14397   0.246   6.994   6.578
 1174SSM    C3A14398   0.239   7.039   6.084
 1174SSM    C4A14399   0.485   7.148   5.663
 1174SSM    C1B14400   0.006   6.182   7.059
 1174SSM    C2B14401  -0.256   5.702   6.918
 1174SSM    C3B14402  -0.469   5.718   6.543
 1174SSM    C4B14403  -0.551   5.861   6.112
 1175SSM    NC314404   4.818  17.619   7.936
 1175SSM    PO414405   4.923  17.766   7.565
 1175SSM    OH114406   4.788  17.855   7.234
 1175SSM    AM214407   4.531  17.690   7.219
 1175SSM    T1A14408   4.834  17.784   6.905
 1175SSM    C2A14409   4.867  17.653   6.522
 1175SSM    C3A14410   4.843  17.369   6.106
 1175SSM    C4A14411   5.143  17.126   5.808
 1175SSM    C1B14412   4.454  17.442   6.933
 1175SSM    C2B14413   4.395  17.342   6.460
 1175SSM    C3B14414   4.351  17.295   6.020
 1175SSM    C4B14415   4.157  17.191   5.567
 1176SSM    NC314416   7.433  16.567   7.830
 1176SSM    PO414417   7.503  16.202   7.691
 1176SSM    OH114418   7.576  16.050   7.364
 1176SSM    AM214419   7.601  16.321   7.231
 1176SSM    T1A14420   7.555  15.909   7.021
 1176SSM    C2A14421   7.489  15.861   6.670
 1176SSM    C3A14422   7.403  15.981   6.180
 1176SSM    C4A14423   7.131  16.175   5.769
 1176SSM    C1B14424   7.699  16.505   6.871
 1176SSM    C2B14425   7.913  16.613   6.402
 1176SSM    C3B14426   7.949  16.620   5.948
 1176SSM    C4B14427   7.969  16.593   5.497
 1177SSM    NC314428  10.488   2.072   7.316
 1177SSM    PO414429  10.613   1.701   7.151
 1177SSM    OH114430  10.667   1.787   6.841
 1177SSM    AM214431  10.400   1.688   6.734
 1177SSM    T1A14432  10.646   1.993   6.575
 1177SSM    C2A14433  10.441   1.935   6.254
 1177SSM    C3A14434  10.261   1.912   5.840
 1177SSM    C4A14435  10.141   1.945   5.315
 1177SSM    C1B14436  10.309   1.466   6.404
 1177SSM    C2B14437  10.220   1.446   5.895
 1177SSM    C3B14438  10.053   1.400   5.419
 1177SSM    C4B14439   9.610   1.351   5.108
 1178SSM    NC314440  13.508   6.836   7.937
 1178SSM    PO414441  13.671   7.215   7.925
 1178SSM    OH114442  13.601   7.310   7.532
 1178SSM    AM214443  13.721   7.066   7.467
 1178SSM    T1A14444  13.459   7.275   7.212
 1178SSM    C2A14445  13.274   7.070   6.954
 1178SSM    C3A14446  13.355   6.832   6.544
 1178SSM    C4A14447  13.449   6.483   6.159
 1178SSM    C1B14448  13.776   6.808   7.054
 1178SSM    C2B14449  13.851   6.677   6.564
 1178SSM    C3B14450  13.878   6.714   6.093
 1178SSM    C4B14451  13.837   6.545   5.597
 1179SSM    NC314452  32.294  24.586   7.860
 1179SSM    PO414453  32.647  24.383   7.806
 1179SSM    OH114454  32.855  24.308   7.554
 1179SSM    AM214455  32.740  24.082   7.385
 1179SSM    T1A14456  32.966  24.420   7.242
 1179SSM    C2A14457  33.040  24.708   6.972
 1179SSM    C3A14458  33.142  24.725   6.461
 1179SSM    C4A14459  33.153  24.802   5.958
 1179SSM    C1B14460  32.742  24.079   6.999
 1179SSM    C2B14461  32.676  24.066   6.544
 1179SSM    C3B14462  32.600  23.995   6.008
 1179SSM    C4B14463  32.335  23.935   5.560
 1180SSM    NC314464  27.735  30.264   7.478
 1180SSM    PO414465  27.738  30.621   7.376
 1180SSM    OH114466  27.607  30.555   7.001
 1180SSM    AM214467  27.906  30.562   6.945
 1180SSM    T1A14468  27.555  30.446   6.700
 1180SSM    C2A14469  27.411  30.286   6.324
 1180SSM    C3A14470  27.236  30.311   5.865
 1180SSM    C4A14471  27.426  30.459   5.387
 1180SSM    C1B14472  28.208  30.401   6.745
 1180SSM    C2B14473  28.289  30.426   6.270
 1180SSM    C3B14474  28.466  30.533   5.850
 1180SSM    C4B14475  28.602  30.704   5.411
 1181SSM    NC314476  33.249  33.146   7.377
 1181SSM    PO414477  33.424  33.479   7.541
 1181SSM    OH114478  33.616  33.668   7.291
 1181SSM    AM214479  33.377  33.634   7.096
 1181SSM    T1A14480  33.792  33.607   7.014
 1181SSM    C2A14481  33.875  33.749   6.646
 1181SSM    C3A14482  34.110  33.907   6.232
 1181SSM    C4A14483  34.111  34.230   5.872
 1181SSM    C1B14484  33.382  33.617   6.706
 1181SSM    C2B14485  33.421  33.688   6.202
 1181SSM    C3B14486  33.761  33.731   5.895
 1181SSM    C4B14487  34.171  33.568   5.594
 1182SSM    NC314488  18.701  32.613   8.013
 1182SSM    PO414489  18.989  32.780   7.761
 1182SSM    OH114490  19.126  32.635   7.437
 1182SSM    AM214491  19.403  32.634   7.489
 1182SSM    T1A14492  19.163  32.585   7.089
 1182SSM    C2A14493  19.026  32.573   6.676
 1182SSM    C3A14494  18.848  32.819   6.261
 1182SSM    C4A14495  18.786  33.053   5.864
 1182SSM    C1B14496  19.748  32.532   7.255
 1182SSM    C2B14497  19.861  32.523   6.762
 1182SSM    C3B14498  19.943  32.176   6.431
 1182SSM    C4B14499  20.129  31.823   6.216
 1183SSM    NC314500   4.045   3.935   7.677
 1183SSM    PO414501   4.218   3.707   7.391
 1183SSM    OH114502   4.420   3.862   7.073
 1183SSM    AM214503   4.298   3.624   6.914
 1183SSM    T1A14504   4.640   3.833   6.817
 1183SSM    C2A14505   4.668   3.836   6.433
 1183SSM    C3A14506   4.754   3.642   6.013
 1183SSM    C4A14507   4.725   3.471   5.554
 1183SSM    C1B14508   4.383   3.400   6.605
 1183SSM    C2B14509   4.396   3.267   6.178
 1183SSM    C3B14510   4.446   3.109   5.705
 1183SSM    C4B14511   4.514   3.037   5.176
 1184SSM    NC314512   0.857   4.014   7.935
 1184SSM    PO414513   0.973   3.682   7.731
 1184SSM    OH114514   1.041   3.539   7.401
 1184SSM    AM214515   0.737   3.587   7.349
 1184SSM    T1A14516   1.054   3.519   7.062
 1184SSM    C2A14517   0.915   3.372   6.692
 1184SSM    C3A14518   0.859   3.437   6.216
 1184SSM    C4A14519   0.975   3.557   5.744
 1184SSM    C1B14520   0.493   3.443   7.003
 1184SSM    C2B14521   0.462   3.391   6.496
 1184SSM    C3B14522   0.371   3.322   6.041
 1184SSM    C4B14523   0.237   3.063   5.614
 1185SSM    NC314524   0.089   5.743   7.306
 1185SSM    PO414525   0.494   5.828   7.338
 1185SSM    OH114526   0.603   5.999   6.991
 1185SSM    AM214527   0.315   5.975   6.876
 1185SSM    T1A14528   0.674   6.082   6.667
 1185SSM    C2A14529   0.715   6.057   6.224
 1185SSM    C3A14530   0.650   6.092   5.789
 1185SSM    C4A14531   0.726   5.821   5.484
 1185SSM    C1B14532   0.047   5.887   6.576
 1185SSM    C2B14533  -0.076   6.038   6.101
 1185SSM    C3B14534  -0.001   6.214   5.708
 1185SSM    C4B14535  -0.241   6.301   5.280
 1186SSM    NC314536  31.244  33.098   7.982
 1186SSM    PO414537  31.235  33.162   7.591
 1186SSM    OH114538  31.016  33.100   7.282
 1186SSM    AM214539  31.261  33.062   7.106
 1186SSM    T1A14540  30.769  33.046   7.040
 1186SSM    C2A14541  30.544  33.132   6.729
 1186SSM    C3A14542  30.455  33.047   6.210
 1186SSM    C4A14543  30.512  32.937   5.720
 1186SSM    C1B14544  31.484  33.098   6.778
 1186SSM    C2B14545  31.419  33.160   6.295
 1186SSM    C3B14546  31.361  33.182   5.848
 1186SSM    C4B14547  31.236  33.083   5.426
 1187SSM    NC314548  25.482  33.285   7.387
 1187SSM    PO414549  25.525  33.593   7.589
 1187SSM    OH114550  25.418  33.887   7.369
 1187SSM    AM214551  25.539  33.709   7.146
 1187SSM    T1A14552  25.253  34.079   7.130
 1187SSM    C2A14553  25.078  34.242   6.803
 1187SSM    C3A14554  24.874  34.239   6.352
 1187SSM    C4A14555  24.582  34.300   5.938
 1187SSM    C1B14556  25.481  33.590   6.837
 1187SSM    C2B14557  25.483  33.577   6.299
 1187SSM    C3B14558  25.405  33.724   5.837
 1187SSM    C4B14559  25.316  33.560   5.376
 1188SSM    NC314560   4.822   0.693   7.918
 1188SSM    PO414561   4.622   0.507   7.619
 1188SSM    OH114562   4.766   0.461   7.308
 1188SSM    AM214563   4.558   0.616   7.153
 1188SSM    T1A14564   4.889   0.449   6.981
 1188SSM    C2A14565   4.957   0.265   6.682
 1188SSM    C3A14566   5.098   0.316   6.224
 1188SSM    C4A14567   5.337   0.246   5.784
 1188SSM    C1B14568   4.469   0.787   6.777
 1188SSM    C2B14569   4.555   0.997   6.259
 1188SSM    C3B14570   4.683   1.186   5.812
 1188SSM    C4B14571   4.851   0.980   5.418
 1189SSM    NC314572   8.730   2.245   7.152
 1189SSM    PO414573   8.339   2.254   7.143
 1189SSM    OH114574   8.132   2.408   6.893
 1189SSM    AM214575   8.133   2.133   6.733
 1189SSM    T1A14576   7.854   2.538   6.745
 1189SSM    C2A14577   7.847   2.374   6.396
 1189SSM    C3A14578   7.900   2.051   6.011
 1189SSM    C4A14579   8.223   2.123   5.629
 1189SSM    C1B14580   8.193   1.855   6.391
 1189SSM    C2B14581   8.344   1.748   5.925
 1189SSM    C3B14582   8.530   1.793   5.448
 1189SSM    C4B14583   8.783   1.918   5.030
 1190SSM    NC314584  33.588   9.669   7.183
 1190SSM    PO414585  33.952   9.644   7.063
 1190SSM    OH114586  34.061   9.458   6.761
 1190SSM    AM214587  34.074   9.732   6.636
 1190SSM    T1A14588  34.061   9.320   6.462
 1190SSM    C2A14589  33.860   9.070   6.188
 1190SSM    C3A14590  33.864   8.617   5.926
 1190SSM    C4A14591  33.634   8.315   5.645
 1190SSM    C1B14592  34.170   9.910   6.225
 1190SSM    C2B14593  34.228   9.642   5.765
 1190SSM    C3B14594  34.373   9.420   5.392
 1190SSM    C4B14595  34.359   8.997   5.122
 1191SSM    NC314596  35.445  20.807   7.921
 1191SSM    PO414597  35.007  20.769   7.899
 1191SSM    OH114598  35.049  20.665   7.558
 1191SSM    AM214599  34.831  20.792   7.430
 1191SSM    T1A14600  35.285  20.612   7.293
 1191SSM    C2A14601  35.394  20.412   6.959
 1191SSM    C3A14602  35.437  20.090   6.647
 1191SSM    C4A14603  35.378  19.753   6.303
 1191SSM    C1B14604  34.749  20.937   7.105
 1191SSM    C2B14605  34.870  21.184   6.693
 1191SSM    C3B14606  34.846  21.455   6.308
 1191SSM    C4B14607  34.888  21.711   5.897
 1192SSM    NC314608  12.790  21.643   7.661
 1192SSM    PO414609  12.932  21.319   7.453
 1192SSM    OH114610  12.800  21.418   7.085
 1192SSM    AM214611  13.075  21.356   7.000
 1192SSM    T1A14612  12.748  21.416   6.739
 1192SSM    C2A14613  12.742  21.465   6.308
 1192SSM    C3A14614  12.759  21.366   5.859
 1192SSM    C4A14615  12.730  21.331   5.382
 1192SSM    C1B14616  13.245  21.155   6.818
 1192SSM    C2B14617  13.665  21.149   6.514
 1192SSM    C3B14618  13.938  21.018   6.179
 1192SSM    C4B14619  14.230  21.065   5.831
 1193SSM    NC314620   1.510   0.612   7.520
 1193SSM    PO414621   1.834   0.365   7.518
 1193SSM    OH114622   1.620   0.206   7.208
 1193SSM    AM214623   1.884   0.242   7.072
 1193SSM    T1A14624   1.526   0.170   6.885
 1193SSM    C2A14625   1.265   0.255   6.610
 1193SSM    C3A14626   1.015   0.075   6.257
 1193SSM    C4A14627   1.101   0.098   5.765
 1193SSM    C1B14628   1.968   0.250   6.741
 1193SSM    C2B14629   1.726   0.133   6.273
 1193SSM    C3B14630   1.712   0.023   5.839
 1193SSM    C4B14631   1.540   0.118   5.391
 1194SSM    NC314632  29.636  33.527   7.011
 1194SSM    PO414633  29.404  33.163   6.988
 1194SSM    OH114634  29.347  32.967   6.682
 1194SSM    AM214635  29.581  32.757   6.734
 1194SSM    T1A14636  29.385  32.822   6.362
 1194SSM    C2A14637  29.511  32.650   6.040
 1194SSM    C3A14638  29.679  32.908   5.598
 1194SSM    C4A14639  30.111  33.084   5.443
 1194SSM    C1B14640  29.651  32.468   6.504
 1194SSM    C2B14641  29.786  32.296   6.023
 1194SSM    C3B14642  30.122  32.054   5.742
 1194SSM    C4B14643  30.425  32.035   5.322
 1195SSM    NC314644  20.483  16.630   7.170
 1195SSM    PO414645  20.537  16.880   7.453
 1195SSM    OH114646  20.644  17.160   7.284
 1195SSM    AM214647  20.417  17.198   7.094
 1195SSM    T1A14648  20.754  17.434   7.104
 1195SSM    C2A14649  20.684  17.661   6.756
 1195SSM    C3A14650  20.921  17.902   6.372
 1195SSM    C4A14651  21.415  17.780   6.279
 1195SSM    C1B14652  20.278  17.414   6.808
 1195SSM    C2B14653  20.288  17.482   6.319
 1195SSM    C3B14654  20.511  17.686   5.944
 1195SSM    C4B14655  20.859  18.039   5.793
 1196SSM    NC314656   3.528  17.594   7.227
 1196SSM    PO414657   3.181  17.583   7.311
 1196SSM    OH114658   3.126  17.336   7.077
 1196SSM    AM214659   3.290  17.495   6.877
 1196SSM    T1A14660   3.166  17.083   6.822
 1196SSM    C2A14661   3.196  16.977   6.411
 1196SSM    C3A14662   3.215  16.916   6.007
 1196SSM    C4A14663   3.165  16.629   5.587
 1196SSM    C1B14664   3.527  17.632   6.651
 1196SSM    C2B14665   3.681  17.553   6.143
 1196SSM    C3B14666   3.680  17.347   5.681
 1196SSM    C4B14667   3.822  17.344   5.200
 1197SSM    NC314668  32.832  22.718   7.171
 1197SSM    PO414669  33.102  22.944   7.377
 1197SSM    OH114670  33.262  23.153   7.094
 1197SSM    AM214671  33.078  22.993   6.868
 1197SSM    T1A14672  33.342  23.327   6.817
 1197SSM    C2A14673  33.447  23.415   6.443
 1197SSM    C3A14674  33.552  23.404   5.981
 1197SSM    C4A14675  33.819  23.360   5.579
 1197SSM    C1B14676  33.009  23.128   6.487
 1197SSM    C2B14677  33.154  22.976   6.032
 1197SSM    C3B14678  33.213  23.136   5.596
 1197SSM    C4B14679  33.452  22.912   5.271
 1198SSM    NC314680   1.569  22.262   7.735
 1198SSM    PO414681   1.383  22.579   7.827
 1198SSM    OH114682   1.047  22.520   7.676
 1198SSM    AM214683   1.066  22.724   7.460
 1198SSM    T1A14684   0.789  22.403   7.480
 1198SSM    C2A14685   0.571  22.273   7.189
 1198SSM    C3A14686   0.324  22.082   6.885
 1198SSM    C4A14687   0.383  22.033   6.425
 1198SSM    C1B14688   1.238  22.963   7.167
 1198SSM    C2B14689   1.229  22.995   6.646
 1198SSM    C3B14690   1.189  22.843   6.193
 1198SSM    C4B14691   1.213  22.747   5.743
 1199SSM    NC314692  14.367   2.443   7.500
 1199SSM    PO414693  14.553   2.698   7.741
 1199SSM    OH114694  14.653   2.757   7.355
 1199SSM    AM214695  14.413   2.927   7.302
 1199SSM    T1A14696  14.626   2.664   7.019
 1199SSM    C2A14697  14.639   2.829   6.694
 1199SSM    C3A14698  14.651   2.884   6.224
 1199SSM    C4A14699  14.705   3.112   5.780
 1199SSM    C1B14700  14.309   3.142   6.954
 1199SSM    C2B14701  14.244   3.374   6.486
 1199SSM    C3B14702  14.424   3.618   6.203
 1199SSM    C4B14703  14.481   3.696   5.686
 1200SSM    NC314704  14.744   5.912   7.519
 1200SSM    PO414705  14.778   5.653   7.844
 1200SSM    OH114706  14.799   5.367   7.603
 1200SSM    AM214707  15.022   5.494   7.437
 1200SSM    T1A14708  14.676   5.127   7.378
 1200SSM    C2A14709  14.830   4.855   7.115
 1200SSM    C3A14710  15.009   4.806   6.669
 1200SSM    C4A14711  15.090   4.759   6.174
 1200SSM    C1B14712  15.127   5.723   7.095
 1200SSM    C2B14713  15.098   5.746   6.603
 1200SSM    C3B14714  15.206   5.707   6.107
 1200SSM    C4B14715  15.465   5.517   5.730
 1201SSM    NC314716  22.717   2.495   7.679
 1201SSM    PO414717  22.885   2.131   7.516
 1201SSM    OH114718  22.752   2.219   7.209
 1201SSM    AM214719  22.775   1.967   7.035
 1201SSM    T1A14720  22.717   2.381   6.911
 1201SSM    C2A14721  22.589   2.626   6.630
 1201SSM    C3A14722  22.659   2.587   6.155
 1201SSM    C4A14723  22.755   2.515   5.671
 1201SSM    C1B14724  22.649   1.806   6.693
 1201SSM    C2B14725  22.597   1.743   6.189
 1201SSM    C3B14726  22.696   1.680   5.719
 1201SSM    C4B14727  22.571   1.635   5.245
 1202SSM    NC314728  29.043  25.363   7.280
 1202SSM    PO414729  28.805  25.661   7.429
 1202SSM    OH114730  28.661  25.913   7.141
 1202SSM    AM214731  28.942  25.896   7.017
 1202SSM    T1A14732  28.541  25.980   6.824
 1202SSM    C2A14733  28.617  26.172   6.475
 1202SSM    C3A14734  28.685  26.175   5.974
 1202SSM    C4A14735  28.599  26.203   5.486
 1202SSM    C1B14736  29.050  26.039   6.689
 1202SSM    C2B14737  29.086  26.036   6.198
 1202SSM    C3B14738  29.217  26.235   5.785
 1202SSM    C4B14739  29.077  26.283   5.307
 1203SSM    NC314740  11.840  24.552   7.187
 1203SSM    PO414741  12.181  24.410   6.994
 1203SSM    OH114742  12.151  24.252   6.688
 1203SSM    AM214743  12.343  24.462   6.553
 1203SSM    T1A14744  12.137  24.016   6.446
 1203SSM    C2A14745  12.342  24.028   6.110
 1203SSM    C3A14746  12.377  24.044   5.611
 1203SSM    C4A14747  12.166  23.798   5.249
 1203SSM    C1B14748  12.561  24.577   6.230
 1203SSM    C2B14749  12.971  24.629   5.903
 1203SSM    C3B14750  12.971  24.783   5.488
 1203SSM    C4B14751  13.342  24.820   5.153
 1204SSM    NC314752   6.463   4.287   6.873
 1204SSM    PO414753   6.296   4.099   7.190
 1204SSM    OH114754   6.121   3.838   7.065
 1204SSM    AM214755   6.097   3.966   6.782
 1204SSM    T1A14756   5.909   3.609   6.922
 1204SSM    C2A14757   5.789   3.371   6.555
 1204SSM    C3A14758   5.922   3.114   6.124
 1204SSM    C4A14759   6.030   3.025   5.720
 1204SSM    C1B14760   6.267   4.081   6.445
 1204SSM    C2B14761   6.495   4.270   6.003
 1204SSM    C3B14762   6.318   4.388   5.588
 1204SSM    C4B14763   6.298   4.502   5.083
 1205SSM    NC314764   2.197  30.639   7.455
 1205SSM    PO414765   2.468  30.671   7.722
 1205SSM    OH114766   2.827  30.829   7.541
 1205SSM    AM214767   2.715  30.661   7.329
 1205SSM    T1A14768   2.854  31.035   7.262
 1205SSM    C2A14769   2.785  31.003   6.930
 1205SSM    C3A14770   2.609  30.993   6.450
 1205SSM    C4A14771   2.339  30.816   6.158
 1205SSM    C1B14772   2.570  30.538   6.939
 1205SSM    C2B14773   2.702  30.465   6.426
 1205SSM    C3B14774   2.430  30.125   6.290
 1205SSM    C4B14775   2.322  30.169   5.813
 1206SSM    NC314776   7.621  23.692   6.776
 1206SSM    PO414777   7.988  23.731   6.923
 1206SSM    OH114778   8.139  23.919   6.633
 1206SSM    AM214779   8.077  23.669   6.412
 1206SSM    T1A14780   8.043  24.132   6.387
 1206SSM    C2A14781   7.986  24.386   6.149
 1206SSM    C3A14782   7.875  24.361   5.638
 1206SSM    C4A14783   7.577  24.053   5.329
 1206SSM    C1B14784   8.097  23.529   6.066
 1206SSM    C2B14785   8.250  23.341   5.620
 1206SSM    C3B14786   8.339  23.186   5.145
 1206SSM    C4B14787   8.332  23.243   4.658
 1207SSM    NC314788   1.996   7.070   7.260
 1207SSM    PO414789   2.095   6.725   7.422
 1207SSM    OH114790   2.297   6.509   7.185
 1207SSM    AM214791   2.082   6.512   6.964
 1207SSM    T1A14792   2.580   6.493   6.998
 1207SSM    C2A14793   2.500   6.563   6.600
 1207SSM    C3A14794   2.651   6.606   6.105
 1207SSM    C4A14795   2.626   6.607   5.652
 1207SSM    C1B14796   1.965   6.523   6.632
 1207SSM    C2B14797   2.044   6.399   6.220
 1207SSM    C3B14798   2.232   6.309   5.840
 1207SSM    C4B14799   2.204   6.155   5.311
 1208SSM    NC314800  23.791  27.241   7.490
 1208SSM    PO414801  24.001  27.517   7.306
 1208SSM    OH114802  23.986  27.402   6.932
 1208SSM    AM214803  23.739  27.273   6.986
 1208SSM    T1A14804  24.003  27.414   6.579
 1208SSM    C2A14805  23.853  27.421   6.197
 1208SSM    C3A14806  23.746  27.504   5.716
 1208SSM    C4A14807  23.426  27.648   5.378
 1208SSM    C1B14808  23.354  27.349   6.864
 1208SSM    C2B14809  23.313  27.199   6.345
 1208SSM    C3B14810  23.400  27.103   5.892
 1208SSM    C4B14811  23.334  27.169   5.338
 1209SSM    NC314812  17.133  31.560   7.296
 1209SSM    PO414813  17.392  31.221   7.300
 1209SSM    OH114814  17.546  31.123   6.989
 1209SSM    AM214815  17.501  31.379   6.830
 1209SSM    T1A14816  17.758  31.076   6.720
 1209SSM    C2A14817  17.718  31.026   6.303
 1209SSM    C3A14818  17.576  31.013   5.875
 1209SSM    C4A14819  17.219  30.978   5.488
 1209SSM    C1B14820  17.243  31.636   6.692
 1209SSM    C2B14821  17.164  32.004   6.374
 1209SSM    C3B14822  17.110  31.983   5.839
 1209SSM    C4B14823  17.002  31.958   5.358
 1210SSM    NC314824  18.173   6.768   7.840
 1210SSM    PO414825  18.455   6.519   7.782
 1210SSM    OH114826  18.480   6.225   7.518
 1210SSM    AM214827  18.588   6.425   7.349
 1210SSM    T1A14828  18.349   6.100   7.216
 1210SSM    C2A14829  18.243   6.168   6.841
 1210SSM    C3A14830  18.321   6.262   6.335
 1210SSM    C4A14831  18.427   6.262   5.877
 1210SSM    C1B14832  18.636   6.576   6.958
 1210SSM    C2B14833  18.616   6.707   6.477
 1210SSM    C3B14834  18.404   6.812   6.012
 1210SSM    C4B14835  18.189   6.958   5.520
 1211SSM    NC314836  13.680   4.016   7.837
 1211SSM    PO414837  13.539   4.372   7.766
 1211SSM    OH114838  13.543   4.270   7.412
 1211SSM    AM214839  13.579   4.562   7.339
 1211SSM    T1A14840  13.590   4.234   7.069
 1211SSM    C2A14841  13.669   4.195   6.696
 1211SSM    C3A14842  13.677   4.292   6.251
 1211SSM    C4A14843  13.556   4.381   5.770
 1211SSM    C1B14844  13.650   4.953   7.179
 1211SSM    C2B14845  13.899   5.068   6.784
 1211SSM    C3B14846  14.140   5.175   6.374
 1211SSM    C4B14847  14.141   5.042   5.952
 1212SSM    NC314848   6.853  17.292   7.432
 1212SSM    PO414849   7.172  17.058   7.390
 1212SSM    OH114850   7.216  16.816   7.086
 1212SSM    AM214851   7.472  16.950   6.983
 1212SSM    T1A14852   7.124  16.835   6.775
 1212SSM    C2A14853   7.124  16.915   6.350
 1212SSM    C3A14854   7.166  16.823   5.914
 1212SSM    C4A14855   7.105  16.808   5.419
 1212SSM    C1B14856   7.681  16.951   6.615
 1212SSM    C2B14857   7.697  17.024   6.122
 1212SSM    C3B14858   7.571  17.030   5.660
 1212SSM    C4B14859   7.535  16.948   5.131
 1213SSM    NC314860   8.678  13.688   7.899
 1213SSM    PO414861   9.046  13.870   7.822
 1213SSM    OH114862   9.112  13.957   7.461
 1213SSM    AM214863   9.385  13.851   7.469
 1213SSM    T1A14864   9.096  14.031   7.126
 1213SSM    C2A14865   8.991  14.131   6.782
 1213SSM    C3A14866   9.079  13.955   6.348
 1213SSM    C4A14867   9.332  13.825   5.978
 1213SSM    C1B14868   9.643  13.813   7.131
 1213SSM    C2B14869   9.763  13.966   6.623
 1213SSM    C3B14870   9.762  14.063   6.145
 1213SSM    C4B14871   9.734  14.063   5.670
 1214SSM    NC314872  28.595  30.726   6.611
 1214SSM    PO414873  28.547  31.082   6.813
 1214SSM    OH114874  28.647  31.210   6.503
 1214SSM    AM214875  28.949  31.173   6.574
 1214SSM    T1A14876  28.749  31.150   6.165
 1214SSM    C2A14877  28.839  31.070   5.817
 1214SSM    C3A14878  28.823  31.223   5.359
 1214SSM    C4A14879  29.023  31.452   4.996
 1214SSM    C1B14880  29.233  31.095   6.288
 1214SSM    C2B14881  29.366  30.971   5.830
 1214SSM    C3B14882  29.571  30.697   5.485
 1214SSM    C4B14883  29.656  30.407   5.097
 1215SSM    NC314884  12.811  28.041   7.740
 1215SSM    PO414885  12.452  28.192   7.646
 1215SSM    OH114886  12.512  28.259   7.275
 1215SSM    AM214887  12.539  28.550   7.314
 1215SSM    T1A14888  12.694  28.306   6.994
 1215SSM    C2A14889  12.725  28.374   6.608
 1215SSM    C3A14890  12.690  28.378   6.093
 1215SSM    C4A14891  12.544  28.305   5.666
 1215SSM    C1B14892  12.417  28.827   7.033
 1215SSM    C2B14893  12.236  29.087   6.583
 1215SSM    C3B14894  12.373  29.047   6.111
 1215SSM    C4B14895  12.444  28.791   5.681
 1216SSM    NC314896   1.562   5.008   7.429
 1216SSM    PO414897   1.341   4.674   7.446
 1216SSM    OH114898   1.347   4.637   7.079
 1216SSM    AM214899   1.059   4.749   7.072
 1216SSM    T1A14900   1.298   4.605   6.751
 1216SSM    C2A14901   1.278   4.701   6.337
 1216SSM    C3A14902   1.089   4.762   5.920
 1216SSM    C4A14903   0.954   4.982   5.466
 1216SSM    C1B14904   0.793   4.908   6.841
 1216SSM    C2B14905   0.725   5.173   6.404
 1216SSM    C3B14906   0.697   5.235   5.931
 1216SSM    C4B14907   0.623   5.385   5.560
 1217SSM    NC314908  13.135  26.465   7.463
 1217SSM    PO414909  13.343  26.796   7.387
 1217SSM    OH114910  13.326  26.950   7.052
 1217SSM    AM214911  13.426  26.710   6.916
 1217SSM    T1A14912  13.419  27.150   6.770
 1217SSM    C2A14913  13.681  27.332   6.557
 1217SSM    C3A14914  13.590  27.275   6.107
 1217SSM    C4A14915  13.598  27.278   5.571
 1217SSM    C1B14916  13.426  26.487   6.571
 1217SSM    C2B14917  13.382  26.490   6.069
 1217SSM    C3B14918  13.161  26.516   5.650
 1217SSM    C4B14919  12.724  26.483   5.422
 1218SSM    NC314920   8.779   4.730   7.615
 1218SSM    PO414921   8.347   4.609   7.557
 1218SSM    OH114922   8.202   4.743   7.222
 1218SSM    AM214923   8.467   4.866   7.178
 1218SSM    T1A14924   8.124   4.838   6.875
 1218SSM    C2A14925   8.159   5.037   6.516
 1218SSM    C3A14926   8.194   5.107   5.992
 1218SSM    C4A14927   8.142   5.086   5.541
 1218SSM    C1B14928   8.825   4.877   7.017
 1218SSM    C2B14929   9.096   4.963   6.609
 1218SSM    C3B14930   9.351   4.909   6.284
 1218SSM    C4B14931   9.238   4.868   5.822
 1219SSM    NC314932  30.562   8.457   7.191
 1219SSM    PO414933  30.868   8.682   7.308
 1219SSM    OH114934  31.250   8.638   7.159
 1219SSM    AM214935  31.209   8.917   7.057
 1219SSM    T1A14936  31.379   8.579   6.840
 1219SSM    C2A14937  31.243   8.493   6.463
 1219SSM    C3A14938  31.448   8.377   6.067
 1219SSM    C4A14939  31.522   8.178   5.617
 1219SSM    C1B14940  31.223   9.153   6.677
 1219SSM    C2B14941  31.355   9.278   6.171
 1219SSM    C3B14942  31.368   9.193   5.688
 1219SSM    C4B14943  30.988   9.036   5.401
 1220SSM    NC314944  25.939   8.987   7.707
 1220SSM    PO414945  25.776   9.320   7.565
 1220SSM    OH114946  25.848   9.600   7.287
 1220SSM    AM214947  25.922   9.363   7.132
 1220SSM    T1A14948  26.035   9.766   7.075
 1220SSM    C2A14949  26.113   9.897   6.683
 1220SSM    C3A14950  26.017  10.006   6.224
 1220SSM    C4A14951  25.824   9.842   5.820
 1220SSM    C1B14952  26.132   9.391   6.828
 1220SSM    C2B14953  26.322   9.557   6.369
 1220SSM    C3B14954  26.506   9.548   6.008
 1220SSM    C4B14955  26.984   9.473   5.844
 1221SSM    NC314956  16.884   7.249   7.520
 1221SSM    PO414957  17.190   7.110   7.723
 1221SSM    OH114958  17.322   6.910   7.482
 1221SSM    AM214959  17.272   7.105   7.257
 1221SSM    T1A14960  17.350   6.628   7.339
 1221SSM    C2A14961  17.416   6.305   7.172
 1221SSM    C3A14962  17.404   5.992   6.752
 1221SSM    C4A14963  17.359   5.914   6.307
 1221SSM    C1B14964  17.111   7.160   6.896
 1221SSM    C2B14965  17.074   7.239   6.363
 1221SSM    C3B14966  16.948   7.170   5.871
 1221SSM    C4B14967  16.698   6.943   5.565
 1222SSM    NC314968  13.524  29.150   7.401
 1222SSM    PO414969  13.153  29.206   7.397
 1222SSM    OH114970  13.107  29.443   7.141
 1222SSM    AM214971  13.374  29.492   7.053
 1222SSM    T1A14972  12.922  29.632   6.904
 1222SSM    C2A14973  12.889  29.767   6.577
 1222SSM    C3A14974  13.045  29.830   6.162
 1222SSM    C4A14975  13.164  29.725   5.717
 1222SSM    C1B14976  13.620  29.412   6.759
 1222SSM    C2B14977  13.795  29.289   6.322
 1222SSM    C3B14978  13.823  28.894   6.095
 1222SSM    C4B14979  13.897  28.534   5.749
 1223SSM    NC314980  20.123   0.044   8.038
 1223SSM    PO414981  20.362   0.346   7.831
 1223SSM    OH114982  20.238   0.572   7.562
 1223SSM    AM214983  20.493   0.584   7.404
 1223SSM    T1A14984  20.104   0.452   7.268
 1223SSM    C2A14985  19.971   0.318   6.852
 1223SSM    C3A14986  19.823   0.150   6.461
 1223SSM    C4A14987  19.615   0.098   6.127
 1223SSM    C1B14988  20.702   0.728   7.085
 1223SSM    C2B14989  20.596   0.771   6.634
 1223SSM    C3B14990  20.521   0.604   6.158
 1223SSM    C4B14991  20.422   0.552   5.705
 1224SSM    NC314992  28.525  31.569   6.774
 1224SSM    PO414993  28.679  31.928   6.858
 1224SSM    OH114994  28.712  32.050   6.478
 1224SSM    AM214995  28.455  31.954   6.391
 1224SSM    T1A14996  28.717  32.082   6.123
 1224SSM    C2A14997  28.656  32.084   5.718
 1224SSM    C3A14998  28.713  31.917   5.301
 1224SSM    C4A14999  28.631  31.812   4.789
 1224SSM    C1B15000  28.230  31.948   6.140
 1224SSM    C2B15001  28.108  31.855   5.629
 1224SSM    C3B15002  27.818  31.856   5.237
 1224SSM    C4B15003  27.349  32.106   5.193
 1225SSM    NC315004   6.871  32.346   7.876
 1225SSM    PO415005   6.819  32.408   7.503
 1225SSM    OH115006   6.611  32.176   7.285
 1225SSM    AM215007   6.895  32.135   7.153
 1225SSM    T1A15008   6.409  32.143   7.001
 1225SSM    C2A15009   6.636  32.234   6.636
 1225SSM    C3A15010   6.737  32.259   6.120
 1225SSM    C4A15011   6.668  32.201   5.635
 1225SSM    C1B15012   7.097  32.149   6.865
 1225SSM    C2B15013   7.156  32.212   6.372
 1225SSM    C3B15014   7.227  32.216   5.914
 1225SSM    C4B15015   7.186  32.041   5.436
 1226SSM    NC315016  23.913  23.338   7.222
 1226SSM    PO415017  23.738  23.021   7.409
 1226SSM    OH115018  23.486  22.996   7.173
 1226SSM    AM215019  23.659  23.044   6.939
 1226SSM    T1A15020  23.234  23.090   6.931
 1226SSM    C2A15021  23.076  23.110   6.533
 1226SSM    C3A15022  22.940  22.977   6.141
 1226SSM    C4A15023  22.904  22.718   5.698
 1226SSM    C1B15024  23.636  23.035   6.587
 1226SSM    C2B15025  23.447  22.895   6.169
 1226SSM    C3B15026  23.527  22.910   5.707
 1226SSM    C4B15027  23.763  22.715   5.307
 1227SSM    NC315028  21.730  30.541   7.806
 1227SSM    PO415029  21.602  30.316   7.457
 1227SSM    OH115030  21.679  30.349   7.095
 1227SSM    AM215031  21.731  30.652   7.103
 1227SSM    T1A15032  21.704  30.359   6.740
 1227SSM    C2A15033  21.777  30.463   6.332
 1227SSM    C3A15034  21.900  30.512   5.819
 1227SSM    C4A15035  22.040  30.696   5.436
 1227SSM    C1B15036  21.610  30.923   6.888
 1227SSM    C2B15037  21.212  31.228   6.680
 1227SSM    C3B15038  20.848  31.262   6.375
 1227SSM    C4B15039  20.561  31.053   6.056
 1228SSM    NC315040  27.027  26.378   7.382
 1228SSM    PO415041  26.976  26.746   7.256
 1228SSM    OH115042  27.100  26.781   6.888
 1228SSM    AM215043  27.119  26.465   6.875
 1228SSM    T1A15044  27.035  26.802   6.557
 1228SSM    C2A15045  26.989  26.684   6.149
 1228SSM    C3A15046  27.147  26.602   5.729
 1228SSM    C4A15047  27.422  26.620   5.353
 1228SSM    C1B15048  27.118  26.239   6.525
 1228SSM    C2B15049  27.042  26.165   6.027
 1228SSM    C3B15050  26.914  26.149   5.600
 1228SSM    C4B15051  26.669  26.123   5.201
 1229SSM    NC315052  10.231   5.708   7.689
 1229SSM    PO415053   9.877   5.696   7.537
 1229SSM    OH115054   9.821   5.804   7.167
 1229SSM    AM215055   9.869   5.521   7.104
 1229SSM    T1A15056   9.807   5.758   6.818
 1229SSM    C2A15057   9.816   5.851   6.446
 1229SSM    C3A15058   9.860   5.932   5.993
 1229SSM    C4A15059  10.011   5.966   5.508
 1229SSM    C1B15060  10.022   5.318   6.710
 1229SSM    C2B15061  10.166   5.035   6.298
 1229SSM    C3B15062  10.125   5.034   5.826
 1229SSM    C4B15063   9.967   5.479   5.589
 1230SSM    NC315064   8.983  24.975   7.163
 1230SSM    PO415065   9.101  24.929   6.789
 1230SSM    OH115066   8.919  24.926   6.480
 1230SSM    AM215067   9.140  25.106   6.309
 1230SSM    T1A15068   8.768  24.992   6.194
 1230SSM    C2A15069   8.786  25.101   5.743
 1230SSM    C3A15070   8.639  25.092   5.300
 1230SSM    C4A15071   8.652  24.743   5.035
 1230SSM    C1B15072   9.208  25.267   5.997
 1230SSM    C2B15073   9.138  25.343   5.499
 1230SSM    C3B15074   8.990  25.681   5.118
 1230SSM    C4B15075   8.894  26.129   4.920
 1231SSM    NC315076  29.149  28.850   7.563
 1231SSM    PO415077  29.212  29.236   7.607
 1231SSM    OH115078  29.187  29.344   7.275
 1231SSM    AM215079  29.019  29.145   7.177
 1231SSM    T1A15080  29.359  29.355   6.982
 1231SSM    C2A15081  29.239  29.531   6.688
 1231SSM    C3A15082  29.222  29.558   6.194
 1231SSM    C4A15083  29.208  29.657   5.665
 1231SSM    C1B15084  28.932  29.067   6.815
 1231SSM    C2B15085  28.664  28.970   6.377
 1231SSM    C3B15086  28.454  28.706   6.034
 1231SSM    C4B15087  28.283  28.597   5.600
 1232SSM    NC315088  33.581  22.655   8.132
 1232SSM    PO415089  33.778  22.685   7.832
 1232SSM    OH115090  34.007  22.493   7.627
 1232SSM    AM215091  34.096  22.750   7.460
 1232SSM    T1A15092  34.147  22.322   7.368
 1232SSM    C2A15093  34.088  22.184   7.021
 1232SSM    C3A15094  34.120  22.040   6.573
 1232SSM    C4A15095  34.130  21.787   6.208
 1232SSM    C1B15096  34.068  23.036   7.173
 1232SSM    C2B15097  34.018  23.158   6.697
 1232SSM    C3B15098  34.079  23.267   6.237
 1232SSM    C4B15099  34.254  23.136   5.786
 1233SSM    NC315100   1.412  35.756   7.174
 1233SSM    PO415101   1.061  35.763   7.372
 1233SSM    OH115102   0.893  35.555   7.112
 1233SSM    AM215103   1.127  35.599   6.887
 1233SSM    T1A15104   0.844  35.261   6.927
 1233SSM    C2A15105   0.879  35.149   6.542
 1233SSM    C3A15106   0.872  35.087   6.057
 1233SSM    C4A15107   1.031  34.918   5.586
 1233SSM    C1B15108   1.329  35.788   6.580
 1233SSM    C2B15109   1.443  35.779   6.140
 1233SSM    C3B15110   1.467  35.669   5.654
 1233SSM    C4B15111   1.347  35.696   5.204
 1234SSM    NC315112   1.852  29.016   7.173
 1234SSM    PO415113   2.236  29.059   7.052
 1234SSM    OH115114   2.120  29.032   6.711
 1234SSM    AM215115   2.147  29.326   6.665
 1234SSM    T1A15116   1.890  28.982   6.455
 1234SSM    C2A15117   1.539  28.971   6.278
 1234SSM    C3A15118   1.464  29.136   5.815
 1234SSM    C4A15119   1.805  29.326   5.485
 1234SSM    C1B15120   2.338  29.571   6.471
 1234SSM    C2B15121   2.086  29.836   6.171
 1234SSM    C3B15122   1.806  30.194   6.255
 1234SSM    C4B15123   1.983  30.527   5.992
 1235SSM    NC315124   3.777  15.115   7.966
 1235SSM    PO415125   3.495  14.869   8.042
 1235SSM    OH115126   3.378  14.992   7.731
 1235SSM    AM215127   3.258  14.744   7.591
 1235SSM    T1A15128   3.326  15.140   7.416
 1235SSM    C2A15129   3.466  15.058   7.087
 1235SSM    C3A15130   3.460  14.801   6.676
 1235SSM    C4A15131   3.702  14.657   6.299
 1235SSM    C1B15132   3.410  14.578   7.318
 1235SSM    C2B15133   3.676  14.356   6.896
 1235SSM    C3B15134   3.954  14.181   6.557
 1235SSM    C4B15135   4.071  13.678   6.498
 1236SSM    NC315136  35.556  15.200   8.073
 1236SSM    PO415137  35.306  14.881   8.035
 1236SSM    OH115138  35.327  15.033   7.711
 1236SSM    AM215139  35.406  14.763   7.616
 1236SSM    T1A15140  35.447  15.137   7.394
 1236SSM    C2A15141  35.510  15.162   6.982
 1236SSM    C3A15142  35.713  15.126   6.548
 1236SSM    C4A15143  35.867  15.048   6.071
 1236SSM    C1B15144  35.558  14.691   7.298
 1236SSM    C2B15145  35.606  14.663   6.792
 1236SSM    C3B15146  35.521  14.549   6.305
 1236SSM    C4B15147  35.526  14.346   5.850
 1237SSM    NC315148  17.954  22.873   7.840
 1237SSM    PO415149  17.786  23.180   7.679
 1237SSM    OH115150  17.728  23.115   7.339
 1237SSM    AM215151  18.011  22.924   7.308
 1237SSM    T1A15152  17.745  23.187   7.001
 1237SSM    C2A15153  17.725  23.205   6.619
 1237SSM    C3A15154  17.704  23.256   6.138
 1237SSM    C4A15155  17.873  23.272   5.659
 1237SSM    C1B15156  18.031  22.817   6.975
 1237SSM    C2B15157  17.940  22.674   6.533
 1237SSM    C3B15158  18.019  22.732   6.061
 1237SSM    C4B15159  18.094  22.816   5.593
 1238SSM    NC315160   7.645   6.060   7.465
 1238SSM    PO415161   7.660   5.656   7.542
 1238SSM    OH115162   7.928   5.533   7.387
 1238SSM    AM215163   8.023   5.716   7.189
 1238SSM    T1A15164   8.204   5.379   7.257
 1238SSM    C2A15165   8.474   5.275   6.949
 1238SSM    C3A15166   8.651   5.111   6.537
 1238SSM    C4A15167   8.748   4.987   6.093
 1238SSM    C1B15168   8.201   5.762   6.831
 1238SSM    C2B15169   8.423   5.599   6.449
 1238SSM    C3B15170   8.540   5.505   5.968
 1238SSM    C4B15171   8.602   5.366   5.457
 1239SSM    NC315172  32.459  14.588   8.037
 1239SSM    PO415173  32.295  14.970   8.012
 1239SSM    OH115174  32.327  14.988   7.633
 1239SSM    AM215175  32.594  15.095   7.600
 1239SSM    T1A15176  32.279  14.887   7.320
 1239SSM    C2A15177  32.453  14.766   6.972
 1239SSM    C3A15178  32.612  14.638   6.505
 1239SSM    C4A15179  32.874  14.728   6.074
 1239SSM    C1B15180  32.782  15.011   7.321
 1239SSM    C2B15181  32.886  15.039   6.784
 1239SSM    C3B15182  32.886  15.216   6.324
 1239SSM    C4B15183  32.777  15.405   5.891
 1240SSM    NC315184   7.397  25.144   7.284
 1240SSM    PO415185   7.780  25.163   7.203
 1240SSM    OH115186   8.026  25.307   6.990
 1240SSM    AM215187   8.068  25.148   6.757
 1240SSM    T1A15188   8.170  25.545   6.778
 1240SSM    C2A15189   8.160  25.727   6.399
 1240SSM    C3A15190   8.071  25.661   5.972
 1240SSM    C4A15191   8.003  25.790   5.477
 1240SSM    C1B15192   8.039  25.210   6.316
 1240SSM    C2B15193   8.009  24.996   5.835
 1240SSM    C3B15194   7.856  24.966   5.425
 1240SSM    C4B15195   7.649  24.927   5.052
 1241SSM    NC315196  19.287  34.531   7.770
 1241SSM    PO415197  19.565  34.601   7.432
 1241SSM    OH115198  19.605  34.295   7.172
 1241SSM    AM215199  19.495  34.474   6.973
 1241SSM    T1A15200  19.729  34.130   6.892
 1241SSM    C2A15201  19.856  34.108   6.543
 1241SSM    C3A15202  19.818  34.069   6.060
 1241SSM    C4A15203  19.730  34.034   5.597
 1241SSM    C1B15204  19.458  34.446   6.624
 1241SSM    C2B15205  19.482  34.411   6.161
 1241SSM    C3B15206  19.369  34.373   5.751
 1241SSM    C4B15207  19.285  34.068   5.372
 1242SSM    NC315208  29.048   5.944   7.853
 1242SSM    PO415209  29.148   5.764   7.502
 1242SSM    OH115210  28.918   5.740   7.254
 1242SSM    AM215211  29.121   5.675   7.029
 1242SSM    T1A15212  28.704   5.594   7.007
 1242SSM    C2A15213  28.394   5.623   6.802
 1242SSM    C3A15214  28.275   5.523   6.349
 1242SSM    C4A15215  28.174   5.403   5.907
 1242SSM    C1B15216  29.218   5.616   6.637
 1242SSM    C2B15217  29.236   5.588   6.082
 1242SSM    C3B15218  29.110   5.829   5.699
 1242SSM    C4B15219  28.972   6.043   5.268
 1243SSM    NC315220   0.914  33.391   7.883
 1243SSM    PO415221   1.161  33.653   7.688
 1243SSM    OH115222   1.259  33.526   7.401
 1243SSM    AM215223   1.120  33.727   7.244
 1243SSM    T1A15224   1.377  33.474   7.088
 1243SSM    C2A15225   1.602  33.570   6.739
 1243SSM    C3A15226   1.740  33.512   6.256
 1243SSM    C4A15227   1.955  33.594   5.867
 1243SSM    C1B15228   0.850  33.823   6.952
 1243SSM    C2B15229   0.758  33.690   6.476
 1243SSM    C3B15230   0.799  33.559   6.054
 1243SSM    C4B15231   0.911  33.862   5.659
 1244SSM    NC315232  26.950  20.619   7.756
 1244SSM    PO415233  26.996  20.245   7.547
 1244SSM    OH115234  27.091  20.336   7.261
 1244SSM    AM215235  26.945  20.159   7.073
 1244SSM    T1A15236  27.040  20.543   6.985
 1244SSM    C2A15237  27.048  20.720   6.598
 1244SSM    C3A15238  26.994  20.793   6.109
 1244SSM    C4A15239  27.066  21.143   5.720
 1244SSM    C1B15240  26.902  20.256   6.672
 1244SSM    C2B15241  26.844  20.299   6.181
 1244SSM    C3B15242  26.614  20.271   5.792
 1244SSM    C4B15243  26.322  20.156   5.409
 1245SSM    NC315244  21.386  32.002   7.701
 1245SSM    PO415245  21.651  31.709   7.719
 1245SSM    OH115246  21.579  31.588   7.343
 1245SSM    AM215247  21.551  31.887   7.240
 1245SSM    T1A15248  21.757  31.439   7.100
 1245SSM    C2A15249  21.904  31.307   6.779
 1245SSM    C3A15250  21.808  31.353   6.308
 1245SSM    C4A15251  21.296  31.319   6.184
 1245SSM    C1B15252  21.608  32.081   6.812
 1245SSM    C2B15253  21.655  32.288   6.319
 1245SSM    C3B15254  21.847  32.258   5.867
 1245SSM    C4B15255  22.206  31.971   5.518
 1246SSM    NC315256   8.015  15.351   7.628
 1246SSM    PO415257   8.329  15.512   7.793
 1246SSM    OH115258   8.584  15.455   7.535
 1246SSM    AM215259   8.426  15.289   7.331
 1246SSM    T1A15260   8.890  15.415   7.410
 1246SSM    C2A15261   9.194  15.467   7.164
 1246SSM    C3A15262   9.292  15.668   6.761
 1246SSM    C4A15263   9.608  15.922   6.452
 1246SSM    C1B15264   8.230  15.207   6.943
 1246SSM    C2B15265   8.083  15.254   6.459
 1246SSM    C3B15266   8.350  15.139   6.052
 1246SSM    C4B15267   8.655  15.298   5.669
 1247SSM    NC315268  13.133   5.951   7.206
 1247SSM    PO415269  13.118   6.306   7.350
 1247SSM    OH115270  12.953   6.541   7.150
 1247SSM    AM215271  12.839   6.340   6.945
 1247SSM    T1A15272  12.897   6.752   6.892
 1247SSM    C2A15273  12.884   6.743   6.467
 1247SSM    C3A15274  13.011   6.635   5.994
 1247SSM    C4A15275  13.212   6.261   5.696
 1247SSM    C1B15276  12.685   5.988   6.795
 1247SSM    C2B15277  12.438   5.602   6.508
 1247SSM    C3B15278  12.374   5.175   6.176
 1247SSM    C4B15279  12.269   4.876   5.827
 1248SSM    NC315280  29.636  25.279   7.788
 1248SSM    PO415281  29.526  25.438   7.427
 1248SSM    OH115282  29.716  25.350   7.075
 1248SSM    AM215283  29.474  25.533   6.965
 1248SSM    T1A15284  29.708  25.193   6.764
 1248SSM    C2A15285  29.466  25.114   6.424
 1248SSM    C3A15286  29.487  25.112   5.934
 1248SSM    C4A15287  29.502  25.098   5.473
 1248SSM    C1B15288  29.216  25.537   6.670
 1248SSM    C2B15289  29.221  25.468   6.127
 1248SSM    C3B15290  29.304  25.673   5.669
 1248SSM    C4B15291  29.175  25.814   5.252
 1249SSM    NC315292   2.746   1.525   7.230
 1249SSM    PO415293   2.726   1.263   7.507
 1249SSM    OH115294   2.677   0.923   7.303
 1249SSM    AM215295   2.431   1.005   7.156
 1249SSM    T1A15296   2.772   0.664   7.087
 1249SSM    C2A15297   2.829   0.490   6.770
 1249SSM    C3A15298   2.711   0.413   6.271
 1249SSM    C4A15299   2.692   0.455   5.753
 1249SSM    C1B15300   2.255   0.936   6.801
 1249SSM    C2B15301   2.250   0.635   6.386
 1249SSM    C3B15302   2.145   0.454   5.968
 1249SSM    C4B15303   1.969   0.319   5.520
 1250SSM    NC315304   5.021  33.268   7.616
 1250SSM    PO415305   5.195  32.987   7.468
 1250SSM    OH115306   5.506  32.947   7.209
 1250SSM    AM215307   5.369  33.178   7.047
 1250SSM    T1A15308   5.707  32.937   6.912
 1250SSM    C2A15309   5.718  33.062   6.525
 1250SSM    C3A15310   5.772  33.239   6.157
 1250SSM    C4A15311   5.930  33.142   5.693
 1250SSM    C1B15312   5.236  33.296   6.701
 1250SSM    C2B15313   5.207  33.241   6.212
 1250SSM    C3B15314   5.482  33.062   5.824
 1250SSM    C4B15315   5.472  32.837   5.413
 1251SSM    NC315316  18.725  16.037   7.434
 1251SSM    PO415317  18.318  16.127   7.519
 1251SSM    OH115318  18.138  16.175   7.181
 1251SSM    AM215319  18.369  16.046   7.035
 1251SSM    T1A15320  18.117  16.347   6.919
 1251SSM    C2A15321  18.040  16.352   6.518
 1251SSM    C3A15322  17.810  16.412   6.061
 1251SSM    C4A15323  17.463  16.467   5.698
 1251SSM    C1B15324  18.386  16.005   6.677
 1251SSM    C2B15325  18.345  15.994   6.156
 1251SSM    C3B15326  18.321  15.750   5.726
 1251SSM    C4B15327  18.466  15.368   5.447
 1252SSM    NC315328  35.481   7.095   7.666
 1252SSM    PO415329  35.403   7.462   7.466
 1252SSM    OH115330  35.680   7.455   7.205
 1252SSM    AM215331  35.634   7.757   7.237
 1252SSM    T1A15332  35.670   7.417   6.871
 1252SSM    C2A15333  35.658   7.595   6.522
 1252SSM    C3A15334  35.860   7.753   6.116
 1252SSM    C4A15335  35.861   8.129   5.743
 1252SSM    C1B15336  35.754   8.038   6.986
 1252SSM    C2B15337  35.802   8.436   6.710
 1252SSM    C3B15338  36.045   8.751   6.512
 1252SSM    C4B15339  36.300   8.956   6.154
 1253SSM    NC315340  30.469  25.486   7.967
 1253SSM    PO415341  30.514  25.369   7.543
 1253SSM    OH115342  30.501  25.574   7.256
 1253SSM    AM215343  30.560  25.326   7.073
 1253SSM    T1A15344  30.551  25.716   6.946
 1253SSM    C2A15345  30.613  25.713   6.589
 1253SSM    C3A15346  30.635  25.769   6.102
 1253SSM    C4A15347  30.668  25.854   5.689
 1253SSM    C1B15348  30.518  25.124   6.743
 1253SSM    C2B15349  30.429  25.165   6.239
 1253SSM    C3B15350  30.339  25.406   5.881
 1253SSM    C4B15351  30.295  25.528   5.362
 1254SSM    NC315352  28.048   3.793   8.017
 1254SSM    PO415353  28.206   3.417   8.041
 1254SSM    OH115354  28.335   3.440   7.679
 1254SSM    AM215355  28.272   3.730   7.637
 1254SSM    T1A15356  28.421   3.406   7.338
 1254SSM    C2A15357  28.271   3.406   6.939
 1254SSM    C3A15358  28.176   3.542   6.451
 1254SSM    C4A15359  28.170   3.319   5.966
 1254SSM    C1B15360  28.272   3.861   7.299
 1254SSM    C2B15361  28.231   4.006   6.798
 1254SSM    C3B15362  28.294   4.089   6.316
 1254SSM    C4B15363  28.235   3.939   5.840
 1255SSM    NC315364  24.409  24.052   7.421
 1255SSM    PO415365  24.137  23.797   7.350
 1255SSM    OH115366  24.092  23.957   7.037
 1255SSM    AM215367  23.958  23.710   6.902
 1255SSM    T1A15368  24.129  24.116   6.743
 1255SSM    C2A15369  24.147  24.103   6.396
 1255SSM    C3A15370  24.206  24.059   5.941
 1255SSM    C4A15371  24.608  24.328   5.927
 1255SSM    C1B15372  23.906  23.516   6.491
 1255SSM    C2B15373  23.836  23.265   6.077
 1255SSM    C3B15374  23.658  23.391   5.634
 1255SSM    C4B15375  23.620  23.781   5.276
 1256SSM    NC315376  16.496  11.994   7.933
 1256SSM    PO415377  16.498  11.901   7.550
 1256SSM    OH115378  16.400  12.150   7.265
 1256SSM    AM215379  16.239  11.893   7.155
 1256SSM    T1A15380  16.425  12.272   6.954
 1256SSM    C2A15381  16.284  12.121   6.626
 1256SSM    C3A15382  16.386  12.007   6.184
 1256SSM    C4A15383  16.443  12.014   5.737
 1256SSM    C1B15384  16.248  11.554   6.997
 1256SSM    C2B15385  16.154  11.579   6.479
 1256SSM    C3B15386  16.100  11.581   5.966
 1256SSM    C4B15387  16.263  11.345   5.536
 1257SSM    NC315388  34.082  21.986   7.769
 1257SSM    PO415389  33.713  22.156   7.783
 1257SSM    OH115390  33.627  22.141   7.455
 1257SSM    AM215391  33.680  22.448   7.352
 1257SSM    T1A15392  33.585  22.085   7.125
 1257SSM    C2A15393  33.675  22.111   6.770
 1257SSM    C3A15394  33.693  22.180   6.289
 1257SSM    C4A15395  34.061  22.258   5.914
 1257SSM    C1B15396  33.790  22.575   7.097
 1257SSM    C2B15397  34.088  22.616   6.704
 1257SSM    C3B15398  34.273  22.751   6.285
 1257SSM    C4B15399  34.425  22.573   5.822
 1258SSM    NC315400  20.697  14.060   7.183
 1258SSM    PO415401  20.523  14.403   7.301
 1258SSM    OH115402  20.284  14.614   7.114
 1258SSM    AM215403  20.451  14.683   6.888
 1258SSM    T1A15404  20.027  14.610   6.859
 1258SSM    C2A15405  20.010  14.633   6.453
 1258SSM    C3A15406  20.091  14.551   5.979
 1258SSM    C4A15407  20.225  14.450   5.574
 1258SSM    C1B15408  20.535  14.670   6.493
 1258SSM    C2B15409  20.497  14.779   5.995
 1258SSM    C3B15410  20.673  14.865   5.589
 1258SSM    C4B15411  20.913  15.011   5.174
 1259SSM    NC315412  13.876   9.595   7.435
 1259SSM    PO415413  13.496   9.627   7.422
 1259SSM    OH115414  13.470   9.556   7.072
 1259SSM    AM215415  13.170   9.557   7.050
 1259SSM    T1A15416  13.463   9.632   6.739
 1259SSM    C2A15417  13.521   9.892   6.450
 1259SSM    C3A15418  13.495  10.111   6.010
 1259SSM    C4A15419  13.551  10.026   5.575
 1259SSM    C1B15420  13.010   9.291   6.841
 1259SSM    C2B15421  12.808   9.177   6.336
 1259SSM    C3B15422  12.693   8.909   5.909
 1259SSM    C4B15423  12.777   8.845   5.490
 1260SSM    NC315424   7.114  21.395   7.347
 1260SSM    PO415425   6.827  21.666   7.449
 1260SSM    OH115426   6.698  21.646   7.140
 1260SSM    AM215427   6.973  21.706   6.984
 1260SSM    T1A15428   6.577  21.587   6.870
 1260SSM    C2A15429   6.627  21.691   6.508
 1260SSM    C3A15430   6.606  21.798   6.004
 1260SSM    C4A15431   6.706  21.890   5.515
 1260SSM    C1B15432   6.989  21.952   6.722
 1260SSM    C2B15433   6.891  22.137   6.294
 1260SSM    C3B15434   7.067  22.261   5.897
 1260SSM    C4B15435   7.168  22.119   5.476
 1261SSM    NC315436   2.338  34.779   7.451
 1261SSM    PO415437   2.585  35.117   7.411
 1261SSM    OH115438   2.736  35.087   7.063
 1261SSM    AM215439   2.521  35.261   6.969
 1261SSM    T1A15440   2.792  35.079   6.712
 1261SSM    C2A15441   2.860  35.070   6.364
 1261SSM    C3A15442   2.762  35.071   5.889
 1261SSM    C4A15443   2.979  34.642   5.757
 1261SSM    C1B15444   2.510  35.477   6.649
 1261SSM    C2B15445   2.715  35.654   6.236
 1261SSM    C3B15446   2.641  35.994   5.810
 1261SSM    C4B15447   2.490  36.145   5.353
 1262SSM    NC315448   2.976   6.841   7.908
 1262SSM    PO415449   3.119   6.620   7.610
 1262SSM    OH115450   3.255   6.657   7.277
 1262SSM    AM215451   3.017   6.508   7.154
 1262SSM    T1A15452   3.384   6.607   6.968
 1262SSM    C2A15453   3.550   6.479   6.648
 1262SSM    C3A15454   3.634   6.302   6.179
 1262SSM    C4A15455   3.507   6.288   5.673
 1262SSM    C1B15456   2.950   6.321   6.741
 1262SSM    C2B15457   3.208   6.029   6.437
 1262SSM    C3B15458   3.320   5.861   6.005
 1262SSM    C4B15459   3.254   5.821   5.532
 1263SSM    NC315460  25.227  34.869   7.609
 1263SSM    PO415461  24.983  34.556   7.585
 1263SSM    OH115462  25.049  34.610   7.270
 1263SSM    AM215463  24.929  34.890   7.209
 1263SSM    T1A15464  25.146  34.664   6.950
 1263SSM    C2A15465  25.045  34.733   6.556
 1263SSM    C3A15466  24.874  34.704   6.106
 1263SSM    C4A15467  24.850  34.639   5.630
 1263SSM    C1B15468  24.753  35.074   6.996
 1263SSM    C2B15469  24.756  35.152   6.498
 1263SSM    C3B15470  24.760  35.231   6.046
 1263SSM    C4B15471  24.784  35.590   5.686
 1264SSM    NC315472   1.882   5.399   7.685
 1264SSM    PO415473   1.745   5.746   7.603
 1264SSM    OH115474   1.741   5.736   7.263
 1264SSM    AM215475   1.809   5.430   7.254
 1264SSM    T1A15476   1.923   5.678   6.974
 1264SSM    C2A15477   2.031   5.669   6.577
 1264SSM    C3A15478   2.133   5.844   6.144
 1264SSM    C4A15479   2.061   5.708   5.724
 1264SSM    C1B15480   1.869   5.226   6.896
 1264SSM    C2B15481   1.823   5.175   6.408
 1264SSM    C3B15482   1.740   5.010   5.918
 1264SSM    C4B15483   1.447   4.958   5.524
 1265SSM    NC315484  20.057  32.702   7.746
 1265SSM    PO415485  19.857  33.046   7.864
 1265SSM    OH115486  19.631  33.034   7.560
 1265SSM    AM215487  19.708  33.334   7.507
 1265SSM    T1A15488  19.449  33.029   7.278
 1265SSM    C2A15489  19.499  32.895   6.900
 1265SSM    C3A15490  19.518  32.815   6.409
 1265SSM    C4A15491  19.393  32.780   5.979
 1265SSM    C1B15492  19.895  33.603   7.262
 1265SSM    C2B15493  20.184  33.855   6.926
 1265SSM    C3B15494  20.214  33.708   6.492
 1265SSM    C4B15495  20.235  33.778   6.036
 1266SSM    NC315496  16.117  16.012   7.778
 1266SSM    PO415497  16.011  15.643   7.669
 1266SSM    OH115498  16.046  15.485   7.330
 1266SSM    AM215499  15.807  15.636   7.220
 1266SSM    T1A15500  16.090  15.534   6.993
 1266SSM    C2A15501  16.051  15.631   6.636
 1266SSM    C3A15502  16.008  15.820   6.167
 1266SSM    C4A15503  16.092  15.721   5.664
 1266SSM    C1B15504  15.554  15.681   6.952
 1266SSM    C2B15505  15.471  15.655   6.461
 1266SSM    C3B15506  15.546  15.879   6.039
 1266SSM    C4B15507  15.737  16.004   5.657
 1267SSM    NC315508  27.524  19.697   7.660
 1267SSM    PO415509  27.162  19.651   7.522
 1267SSM    OH115510  27.034  19.530   7.211
 1267SSM    AM215511  27.127  19.729   6.998
 1267SSM    T1A15512  27.060  19.307   6.940
 1267SSM    C2A15513  27.165  19.336   6.573
 1267SSM    C3A15514  27.183  19.400   6.078
 1267SSM    C4A15515  27.008  19.372   5.653
 1267SSM    C1B15516  27.156  19.850   6.652
 1267SSM    C2B15517  27.163  19.902   6.174
 1267SSM    C3B15518  27.046  19.888   5.711
 1267SSM    C4B15519  26.916  20.239   5.354
 1268SSM    NC315520  22.690   3.156   7.172
 1268SSM    PO415521  22.951   2.864   7.363
 1268SSM    OH115522  23.119   2.677   7.091
 1268SSM    AM215523  23.145   2.953   6.952
 1268SSM    T1A15524  23.090   2.613   6.745
 1268SSM    C2A15525  23.165   2.625   6.342
 1268SSM    C3A15526  23.211   2.587   5.855
 1268SSM    C4A15527  23.413   2.592   5.372
 1268SSM    C1B15528  23.015   3.100   6.617
 1268SSM    C2B15529  23.077   3.069   6.169
 1268SSM    C3B15530  23.355   3.149   5.778
 1268SSM    C4B15531  23.564   3.154   5.325
 1269SSM    NC315532  10.613   3.726   7.309
 1269SSM    PO415533  10.239   3.882   7.311
 1269SSM    OH115534  10.172   4.010   6.967
 1269SSM    AM215535   9.982   3.796   6.856
 1269SSM    T1A15536  10.088   4.144   6.653
 1269SSM    C2A15537   9.976   4.264   6.261
 1269SSM    C3A15538   9.914   4.229   5.829
 1269SSM    C4A15539   9.475   4.068   5.640
 1269SSM    C1B15540   9.953   3.577   6.591
 1269SSM    C2B15541   9.992   3.713   6.078
 1269SSM    C3B15542  10.003   3.829   5.613
 1269SSM    C4B15543   9.880   4.045   5.180
 1270SSM    NC315544  32.598   1.634   7.310
 1270SSM    PO415545  32.690   1.287   7.228
 1270SSM    OH115546  32.451   1.148   6.970
 1270SSM    AM215547  32.508   1.428   6.838
 1270SSM    T1A15548  32.275   1.094   6.668
 1270SSM    C2A15549  32.153   1.127   6.297
 1270SSM    C3A15550  32.048   1.086   5.872
 1270SSM    C4A15551  32.133   1.271   5.473
 1270SSM    C1B15552  32.602   1.610   6.466
 1270SSM    C2B15553  32.486   1.860   6.057
 1270SSM    C3B15554  32.393   2.209   5.760
 1270SSM    C4B15555  32.164   2.444   5.358
 1271SSM    NC315556   2.252   1.926   7.806
 1271SSM    PO415557   2.111   2.031   7.449
 1271SSM    OH115558   2.279   1.914   7.167
 1271SSM    AM215559   2.061   1.769   7.025
 1271SSM    T1A15560   2.449   1.896   6.879
 1271SSM    C2A15561   2.411   1.839   6.477
 1271SSM    C3A15562   2.390   1.833   5.974
 1271SSM    C4A15563   2.394   1.866   5.491
 1271SSM    C1B15564   1.928   1.642   6.741
 1271SSM    C2B15565   2.112   1.521   6.279
 1271SSM    C3B15566   2.106   1.480   5.790
 1271SSM    C4B15567   1.908   1.250   5.368
 1272SSM    NC315568  17.804  29.614   7.615
 1272SSM    PO415569  17.435  29.729   7.596
 1272SSM    OH115570  17.359  29.930   7.296
 1272SSM    AM215571  17.265  29.657   7.181
 1272SSM    T1A15572  17.153  30.056   7.021
 1272SSM    C2A15573  17.208  30.110   6.665
 1272SSM    C3A15574  17.222  30.118   6.190
 1272SSM    C4A15575  17.074  30.118   5.727
 1272SSM    C1B15576  17.340  29.483   6.863
 1272SSM    C2B15577  17.574  29.336   6.419
 1272SSM    C3B15578  17.848  29.198   6.040
 1272SSM    C4B15579  18.205  29.090   5.725
 1273SSM    NC315580  13.139  16.007   8.053
 1273SSM    PO415581  13.352  15.950   7.707
 1273SSM    OH115582  13.249  16.260   7.505
 1273SSM    AM215583  13.290  16.099   7.263
 1273SSM    T1A15584  13.088  16.502   7.289
 1273SSM    C2A15585  13.151  16.649   6.916
 1273SSM    C3A15586  13.194  16.799   6.424
 1273SSM    C4A15587  13.062  16.862   5.908
 1273SSM    C1B15588  13.322  15.860   6.975
 1273SSM    C2B15589  13.391  15.887   6.462
 1273SSM    C3B15590  13.439  15.916   6.014
 1273SSM    C4B15591  13.466  16.223   5.601
 1274SSM    NC315592  27.861  17.705   7.689
 1274SSM    PO415593  28.159  17.813   7.463
 1274SSM    OH115594  28.210  17.969   7.153
 1274SSM    AM215595  28.057  17.748   6.983
 1274SSM    T1A15596  28.257  18.045   6.824
 1274SSM    C2A15597  28.174  17.980   6.411
 1274SSM    C3A15598  27.943  18.165   5.988
 1274SSM    C4A15599  27.751  18.221   5.614
 1274SSM    C1B15600  27.790  17.686   6.705
 1274SSM    C2B15601  27.583  17.812   6.294
 1274SSM    C3B15602  27.472  17.843   5.849
 1274SSM    C4B15603  27.305  17.668   5.353
 1275SSM    NC315604  30.733   5.156   7.491
 1275SSM    PO415605  30.694   5.526   7.631
 1275SSM    OH115606  30.838   5.710   7.333
 1275SSM    AM215607  30.617   5.578   7.175
 1275SSM    T1A15608  30.947   5.836   7.014
 1275SSM    C2A15609  31.017   6.125   6.743
 1275SSM    C3A15610  31.037   6.339   6.338
 1275SSM    C4A15611  31.061   6.469   5.874
 1275SSM    C1B15612  30.625   5.407   6.857
 1275SSM    C2B15613  30.787   5.454   6.424
 1275SSM    C3B15614  30.905   5.511   5.943
 1275SSM    C4B15615  30.776   5.625   5.501
 1276SSM    NC315616   4.367  21.999   7.839
 1276SSM    PO415617   4.050  22.219   7.850
 1276SSM    OH115618   4.087  22.289   7.469
 1276SSM    AM215619   3.922  22.053   7.413
 1276SSM    T1A15620   4.248  22.309   7.185
 1276SSM    C2A15621   4.265  22.302   6.795
 1276SSM    C3A15622   4.225  22.306   6.310
 1276SSM    C4A15623   4.184  22.534   5.859
 1276SSM    C1B15624   3.600  21.988   7.182
 1276SSM    C2B15625   3.240  22.048   6.777
 1276SSM    C3B15626   3.209  22.105   6.271
 1276SSM    C4B15627   3.095  22.116   5.817
 1277SSM    NC315628  24.262  24.914   7.524
 1277SSM    PO415629  24.069  25.212   7.327
 1277SSM    OH115630  23.861  24.978   7.068
 1277SSM    AM215631  23.859  25.187   6.874
 1277SSM    T1A15632  23.914  24.751   6.822
 1277SSM    C2A15633  23.903  24.532   6.538
 1277SSM    C3A15634  23.771  24.289   6.127
 1277SSM    C4A15635  23.732  24.117   5.673
 1277SSM    C1B15636  24.101  25.463   6.568
 1277SSM    C2B15637  24.259  25.494   6.078
 1277SSM    C3B15638  24.180  25.643   5.668
 1277SSM    C4B15639  24.339  25.875   5.177
 1278SSM    NC315640  25.061  26.377   7.994
 1278SSM    PO415641  25.187  26.260   7.629
 1278SSM    OH115642  25.274  26.353   7.313
 1278SSM    AM215643  25.077  26.611   7.278
 1278SSM    T1A15644  25.329  26.298   6.996
 1278SSM    C2A15645  25.200  26.127   6.662
 1278SSM    C3A15646  25.168  26.044   6.157
 1278SSM    C4A15647  25.014  26.065   5.744
 1278SSM    C1B15648  25.026  26.643   6.885
 1278SSM    C2B15649  24.945  26.616   6.449
 1278SSM    C3B15650  24.917  26.689   5.920
 1278SSM    C4B15651  24.677  26.705   5.482
 1279SSM    NC315652  26.664  17.159   7.958
 1279SSM    PO415653  26.505  17.209   7.607
 1279SSM    OH115654  26.729  17.195   7.318
 1279SSM    AM215655  26.805  16.898   7.304
 1279SSM    T1A15656  26.790  17.133   6.978
 1279SSM    C2A15657  26.800  17.111   6.579
 1279SSM    C3A15658  26.631  16.980   6.123
 1279SSM    C4A15659  26.569  17.129   5.697
 1279SSM    C1B15660  26.794  16.715   6.920
 1279SSM    C2B15661  26.845  16.590   6.469
 1279SSM    C3B15662  26.787  16.441   6.043
 1279SSM    C4B15663  26.547  16.420   5.612
 1280SSM    NC315664  27.253   1.574   8.262
 1280SSM    PO415665  26.976   1.616   7.983
 1280SSM    OH115666  27.048   1.338   7.700
 1280SSM    AM215667  26.900   1.492   7.508
 1280SSM    T1A15668  27.115   1.139   7.445
 1280SSM    C2A15669  26.979   1.053   7.103
 1280SSM    C3A15670  26.967   0.995   6.696
 1280SSM    C4A15671  27.011   1.153   6.200
 1280SSM    C1B15672  26.776   1.516   7.179
 1280SSM    C2B15673  26.994   1.499   6.725
 1280SSM    C3B15674  27.151   1.624   6.280
 1280SSM    C4B15675  27.172   1.777   5.830
 1281SSM    NC315676   4.034  28.950   7.882
 1281SSM    PO415677   4.124  29.251   7.633
 1281SSM    OH115678   4.116  29.258   7.241
 1281SSM    AM215679   4.149  28.978   7.199
 1281SSM    T1A15680   4.217  29.239   6.895
 1281SSM    C2A15681   4.312  29.213   6.521
 1281SSM    C3A15682   4.245  29.270   6.103
 1281SSM    C4A15683   4.147  29.266   5.659
 1281SSM    C1B15684   4.394  28.816   6.966
 1281SSM    C2B15685   4.417  28.714   6.424
 1281SSM    C3B15686   4.419  28.496   6.058
 1281SSM    C4B15687   4.372  28.581   5.571
 1282SSM    NC315688  16.489   5.555   7.995
 1282SSM    PO415689  16.473   5.915   8.062
 1282SSM    OH115690  16.415   6.081   7.761
 1282SSM    AM215691  16.586   5.908   7.602
 1282SSM    T1A15692  16.419   6.192   7.434
 1282SSM    C2A15693  16.338   6.165   7.031
 1282SSM    C3A15694  16.286   6.123   6.579
 1282SSM    C4A15695  16.122   5.995   6.123
 1282SSM    C1B15696  16.538   5.806   7.294
 1282SSM    C2B15697  16.541   5.726   6.809
 1282SSM    C3B15698  16.524   5.686   6.399
 1282SSM    C4B15699  16.480   5.478   5.910
 1283SSM    NC315700  27.169  21.291   7.333
 1283SSM    PO415701  27.151  20.900   7.399
 1283SSM    OH115702  27.513  20.822   7.386
 1283SSM    AM215703  27.445  20.634   7.156
 1283SSM    T1A15704  27.802  20.814   7.223
 1283SSM    C2A15705  27.993  20.538   6.971
 1283SSM    C3A15706  28.198  20.116   6.974
 1283SSM    C4A15707  28.267  19.623   6.905
 1283SSM    C1B15708  27.480  20.619   6.752
 1283SSM    C2B15709  27.471  20.720   6.326
 1283SSM    C3B15710  27.506  20.898   5.877
 1283SSM    C4B15711  27.519  21.316   5.586
 1284SSM    NC315712   5.895  22.645   7.674
 1284SSM    PO415713   5.610  22.887   7.481
 1284SSM    OH115714   5.349  22.828   7.218
 1284SSM    AM215715   5.467  22.972   7.002
 1284SSM    T1A15716   5.087  22.760   7.006
 1284SSM    C2A15717   5.131  22.585   6.655
 1284SSM    C3A15718   5.447  22.518   6.229
 1284SSM    C4A15719   5.688  22.561   5.790
 1284SSM    C1B15720   5.571  23.285   6.769
 1284SSM    C2B15721   5.810  23.435   6.412
 1284SSM    C3B15722   5.771  23.627   6.011
 1284SSM    C4B15723   5.562  23.822   5.605
 1285SSM    NC315724  14.145   7.202   7.672
 1285SSM    PO415725  14.540   7.174   7.632
 1285SSM    OH115726  14.755   7.358   7.400
 1285SSM    AM215727  14.511   7.419   7.205
 1285SSM    T1A15728  14.871   7.614   7.215
 1285SSM    C2A15729  14.758   7.716   6.859
 1285SSM    C3A15730  14.643   7.739   6.392
 1285SSM    C4A15731  14.598   7.615   5.916
 1285SSM    C1B15732  14.407   7.308   6.864
 1285SSM    C2B15733  14.300   7.128   6.409
 1285SSM    C3B15734  14.253   7.166   5.948
 1285SSM    C4B15735  14.558   7.137   5.583
 1286SSM    NC315736  29.967  20.277   7.444
 1286SSM    PO415737  30.202  20.621   7.489
 1286SSM    OH115738  30.346  20.628   7.104
 1286SSM    AM215739  30.077  20.535   6.987
 1286SSM    T1A15740  30.399  20.797   6.809
 1286SSM    C2A15741  30.405  20.815   6.365
 1286SSM    C3A15742  30.309  20.705   5.925
 1286SSM    C4A15743  30.242  20.518   5.499
 1286SSM    C1B15744  29.979  20.290   6.753
 1286SSM    C2B15745  30.092  19.913   6.515
 1286SSM    C3B15746  30.133  19.814   6.029
 1286SSM    C4B15747  30.271  19.653   5.620
 1287SSM    NC315748  33.568  17.272   8.445
 1287SSM    PO415749  33.628  17.605   8.248
 1287SSM    OH115750  33.842  17.805   8.042
 1287SSM    AM215751  33.886  17.604   7.811
 1287SSM    T1A15752  34.053  18.016   7.874
 1287SSM    C2A15753  34.162  18.078   7.479
 1287SSM    C3A15754  34.354  18.357   7.149
 1287SSM    C4A15755  34.343  18.524   6.707
 1287SSM    C1B15756  33.952  17.491   7.416
 1287SSM    C2B15757  33.903  17.226   6.944
 1287SSM    C3B15758  34.028  17.200   6.486
 1287SSM    C4B15759  34.295  17.020   6.123
 1288SSM    NC315760  22.814  13.572   7.892
 1288SSM    PO415761  22.826  13.486   7.525
 1288SSM    OH115762  23.149  13.320   7.387
 1288SSM    AM215763  22.981  13.146   7.188
 1288SSM    T1A15764  23.335  13.417   7.127
 1288SSM    C2A15765  23.536  13.308   6.787
 1288SSM    C3A15766  23.704  13.228   6.318
 1288SSM    C4A15767  23.810  12.806   5.975
 1288SSM    C1B15768  23.149  12.981   6.884
 1288SSM    C2B15769  23.196  13.058   6.387
 1288SSM    C3B15770  23.371  13.063   5.936
 1288SSM    C4B15771  23.747  13.307   5.733
 1289SSM    NC315772  24.343  13.710   8.236
 1289SSM    PO415773  24.460  13.506   7.894
 1289SSM    OH115774  24.781  13.499   7.752
 1289SSM    AM215775  24.698  13.351   7.515
 1289SSM    T1A15776  25.018  13.714   7.600
 1289SSM    C2A15777  25.195  13.904   7.335
 1289SSM    C3A15778  25.295  13.989   6.845
 1289SSM    C4A15779  25.364  14.098   6.333
 1289SSM    C1B15780  24.666  13.233   7.133
 1289SSM    C2B15781  24.683  13.273   6.576
 1289SSM    C3B15782  24.775  13.228   6.105
 1289SSM    C4B15783  24.813  13.028   5.618
 1290SSM    NC315784   4.936   4.162   7.285
 1290SSM    PO415785   5.344   4.239   7.318
 1290SSM    OH115786   5.408   4.060   7.010
 1290SSM    AM215787   5.143   4.088   6.888
 1290SSM    T1A15788   5.527   3.844   6.749
 1290SSM    C2A15789   5.795   3.827   6.428
 1290SSM    C3A15790   5.739   3.705   5.979
 1290SSM    C4A15791   5.760   3.517   5.530
 1290SSM    C1B15792   4.992   4.139   6.584
 1290SSM    C2B15793   4.878   4.121   6.077
 1290SSM    C3B15794   4.970   3.915   5.612
 1290SSM    C4B15795   5.043   3.897   5.144
 1291SSM    NC315796  34.209   0.477   7.546
 1291SSM    PO415797  34.250   0.755   7.241
 1291SSM    OH115798  34.372   0.710   6.925
 1291SSM    AM215799  34.302   0.979   6.779
 1291SSM    T1A15800  34.494   0.595   6.626
 1291SSM    C2A15801  34.237   0.661   6.321
 1291SSM    C3A15802  33.876   0.564   6.085
 1291SSM    C4A15803  33.448   0.376   5.936
 1291SSM    C1B15804  34.017   1.063   6.487
 1291SSM    C2B15805  34.150   0.989   5.999
 1291SSM    C3B15806  34.163   1.015   5.555
 1291SSM    C4B15807  34.034   0.928   5.106
 1292SSM    NC315808   7.231   9.257   7.768
 1292SSM    PO415809   7.584   9.244   7.531
 1292SSM    OH115810   7.665   9.155   7.203
 1292SSM    AM215811   7.413   9.240   7.056
 1292SSM    T1A15812   7.806   9.077   6.899
 1292SSM    C2A15813   7.643   9.018   6.476
 1292SSM    C3A15814   7.585   8.719   6.086
 1292SSM    C4A15815   7.380   8.532   5.585
 1292SSM    C1B15816   7.242   9.158   6.697
 1292SSM    C2B15817   7.201   9.143   6.227
 1292SSM    C3B15818   7.265   9.030   5.765
 1292SSM    C4B15819   7.272   9.004   5.303
 1293SSM    NC315820  15.866   2.844   7.685
 1293SSM    PO415821  16.079   2.471   7.730
 1293SSM    OH115822  16.170   2.525   7.391
 1293SSM    AM215823  15.918   2.572   7.296
 1293SSM    T1A15824  16.275   2.668   7.099
 1293SSM    C2A15825  16.336   2.634   6.717
 1293SSM    C3A15826  16.264   2.576   6.246
 1293SSM    C4A15827  16.170   2.522   5.764
 1293SSM    C1B15828  15.807   2.582   6.922
 1293SSM    C2B15829  15.792   2.637   6.424
 1293SSM    C3B15830  15.661   2.530   5.969
 1293SSM    C4B15831  15.755   2.743   5.558
 1294SSM    NC315832  35.034  28.388   7.795
 1294SSM    PO415833  35.104  28.498   7.397
 1294SSM    OH115834  34.896  28.520   7.083
 1294SSM    AM215835  35.126  28.650   6.928
 1294SSM    T1A15836  34.729  28.503   6.776
 1294SSM    C2A15837  34.746  28.604   6.409
 1294SSM    C3A15838  34.822  28.815   6.020
 1294SSM    C4A15839  34.926  29.057   5.660
 1294SSM    C1B15840  35.238  28.816   6.570
 1294SSM    C2B15841  35.112  29.195   6.259
 1294SSM    C3B15842  35.078  29.545   5.968
 1294SSM    C4B15843  35.023  29.971   5.746
 1295SSM    NC315844   5.584  34.402   7.181
 1295SSM    PO415845   5.510  34.013   7.337
 1295SSM    OH115846   5.549  33.742   7.097
 1295SSM    AM215847   5.248  33.699   7.100
 1295SSM    T1A15848   5.584  33.601   6.777
 1295SSM    C2A15849   5.757  33.644   6.413
 1295SSM    C3A15850   5.565  33.679   5.934
 1295SSM    C4A15851   5.425  33.473   5.446
 1295SSM    C1B15852   4.956  33.634   6.864
 1295SSM    C2B15853   4.735  33.546   6.401
 1295SSM    C3B15854   4.528  33.532   6.011
 1295SSM    C4B15855   4.318  33.641   5.536
 1296SSM    NC315856  32.500   2.145   7.343
 1296SSM    PO415857  32.241   1.883   7.537
 1296SSM    OH115858  32.134   1.665   7.228
 1296SSM    AM215859  32.221   1.917   7.050
 1296SSM    T1A15860  31.992   1.559   6.952
 1296SSM    C2A15861  32.084   1.538   6.564
 1296SSM    C3A15862  31.997   1.664   6.077
 1296SSM    C4A15863  32.122   1.786   5.623
 1296SSM    C1B15864  32.353   2.022   6.707
 1296SSM    C2B15865  32.362   2.315   6.309
 1296SSM    C3B15866  32.659   2.632   6.035
 1296SSM    C4B15867  33.072   2.816   5.797
 1297SSM    NC315868  13.615   0.190   7.169
 1297SSM    PO415869  13.996   0.097   7.202
 1297SSM    OH115870  14.095  -0.017   6.905
 1297SSM    AM215871  13.881  -0.158   6.771
 1297SSM    T1A15872  14.305  -0.016   6.631
 1297SSM    C2A15873  14.608  -0.122   6.343
 1297SSM    C3A15874  14.777  -0.306   5.880
 1297SSM    C4A15875  14.991  -0.555   5.477
 1297SSM    C1B15876  13.752  -0.238   6.410
 1297SSM    C2B15877  13.736  -0.429   5.971
 1297SSM    C3B15878  13.844  -0.160   5.531
 1297SSM    C4B15879  13.749   0.031   5.063
 1298SSM    NC315880   5.115  19.619   7.038
 1298SSM    PO415881   5.011  19.264   7.194
 1298SSM    OH115882   5.282  19.121   6.994
 1298SSM    AM215883   5.138  19.159   6.730
 1298SSM    T1A15884   5.515  19.038   6.775
 1298SSM    C2A15885   5.445  19.048   6.336
 1298SSM    C3A15886   5.385  18.868   5.885
 1298SSM    C4A15887   5.305  19.149   5.439
 1298SSM    C1B15888   4.949  18.964   6.475
 1298SSM    C2B15889   4.857  18.924   5.970
 1298SSM    C3B15890   4.976  18.787   5.555
 1298SSM    C4B15891   5.448  18.711   5.322
 1299SSM    NC315892  24.779  31.505   7.608
 1299SSM    PO415893  24.822  31.400   7.215
 1299SSM    OH115894  24.935  31.599   6.907
 1299SSM    AM215895  24.832  31.367   6.744
 1299SSM    T1A15896  25.099  31.705   6.640
 1299SSM    C2A15897  24.945  31.657   6.279
 1299SSM    C3A15898  24.827  31.568   5.861
 1299SSM    C4A15899  24.770  31.408   5.413
 1299SSM    C1B15900  24.607  31.157   6.420
 1299SSM    C2B15901  24.409  31.104   5.971
 1299SSM    C3B15902  24.355  30.991   5.500
 1299SSM    C4B15903  24.437  31.172   5.062
 1300SSM    NC315904  19.208  17.357   7.670
 1300SSM    PO415905  18.841  17.418   7.848
 1300SSM    OH115906  18.698  17.653   7.569
 1300SSM    AM215907  18.805  17.440   7.386
 1300SSM    T1A15908  18.529  17.798   7.302
 1300SSM    C2A15909  18.563  17.786   6.875
 1300SSM    C3A15910  18.483  17.842   6.450
 1300SSM    C4A15911  18.410  17.750   5.930
 1300SSM    C1B15912  18.835  17.315   6.974
 1300SSM    C2B15913  18.790  17.409   6.496
 1300SSM    C3B15914  18.789  17.472   6.063
 1300SSM    C4B15915  18.901  17.679   5.680
 1301SSM    NC315916  14.289  30.564   7.815
 1301SSM    PO415917  14.647  30.415   7.886
 1301SSM    OH115918  14.878  30.518   7.659
 1301SSM    AM215919  14.917  30.247   7.531
 1301SSM    T1A15920  14.932  30.638   7.328
 1301SSM    C2A15921  14.758  30.757   6.925
 1301SSM    C3A15922  14.454  30.860   6.541
 1301SSM    C4A15923  14.185  31.069   6.232
 1301SSM    C1B15924  14.921  30.014   7.210
 1301SSM    C2B15925  14.955  29.731   6.780
 1301SSM    C3B15926  14.963  29.818   6.299
 1301SSM    C4B15927  15.185  30.084   5.927
 1302SSM    NC315928  31.981   2.716   7.712
 1302SSM    PO415929  32.354   2.563   7.568
 1302SSM    OH115930  32.285   2.539   7.220
 1302SSM    AM215931  31.997   2.485   7.270
 1302SSM    T1A15932  32.196   2.572   6.875
 1302SSM    C2A15933  32.272   2.760   6.592
 1302SSM    C3A15934  32.341   3.032   6.161
 1302SSM    C4A15935  32.299   2.794   5.716
 1302SSM    C1B15936  31.681   2.509   7.000
 1302SSM    C2B15937  31.763   2.584   6.514
 1302SSM    C3B15938  31.755   2.739   5.998
 1302SSM    C4B15939  31.770   2.874   5.533
 1303SSM    NC315940  31.446   9.548   7.612
 1303SSM    PO415941  31.757   9.369   7.433
 1303SSM    OH115942  31.953   9.299   7.089
 1303SSM    AM215943  31.726   9.481   6.968
 1303SSM    T1A15944  32.019   9.223   6.762
 1303SSM    C2A15945  32.222   9.014   6.458
 1303SSM    C3A15946  32.269   8.861   5.992
 1303SSM    C4A15947  32.230   8.722   5.536
 1303SSM    C1B15948  31.658   9.528   6.561
 1303SSM    C2B15949  31.821   9.442   6.046
 1303SSM    C3B15950  31.733   9.490   5.533
 1303SSM    C4B15951  31.454   9.361   5.195
 1304SSM    NC315952  19.094   5.248   7.592
 1304SSM    PO415953  19.373   5.052   7.498
 1304SSM    OH115954  19.388   5.142   7.122
 1304SSM    AM215955  19.085   5.087   7.110
 1304SSM    T1A15956  19.286   5.352   6.860
 1304SSM    C2A15957  18.891   5.388   6.679
 1304SSM    C3A15958  18.468   5.390   6.770
 1304SSM    C4A15959  18.171   5.049   6.975
 1304SSM    C1B15960  18.688   4.999   6.928
 1304SSM    C2B15961  18.386   4.927   6.539
 1304SSM    C3B15962  18.457   4.792   6.096
 1304SSM    C4B15963  18.206   4.672   5.759
 1305SSM    NC315964  11.543   5.256   7.244
 1305SSM    PO415965  11.549   4.837   7.259
 1305SSM    OH115966  11.394   4.739   6.940
 1305SSM    AM215967  11.417   4.985   6.805
 1305SSM    T1A15968  11.445   4.582   6.632
 1305SSM    C2A15969  11.792   4.592   6.482
 1305SSM    C3A15970  12.218   4.696   6.338
 1305SSM    C4A15971  12.691   4.425   6.316
 1305SSM    C1B15972  11.499   5.034   6.428
 1305SSM    C2B15973  11.257   5.017   6.001
 1305SSM    C3B15974  11.027   5.163   5.598
 1305SSM    C4B15975  10.913   5.503   5.369
 1306SSM    NC315976  26.809  34.350   8.003
 1306SSM    PO415977  26.785  34.232   7.609
 1306SSM    OH115978  26.997  34.365   7.279
 1306SSM    AM215979  26.757  34.210   7.154
 1306SSM    T1A15980  26.976  34.616   7.043
 1306SSM    C2A15981  26.959  34.760   6.715
 1306SSM    C3A15982  26.862  34.870   6.235
 1306SSM    C4A15983  26.660  34.987   5.705
 1306SSM    C1B15984  26.593  33.975   6.897
 1306SSM    C2B15985  26.449  34.074   6.385
 1306SSM    C3B15986  26.345  34.019   5.932
 1306SSM    C4B15987  26.085  34.194   5.560
 1307SSM    NC315988  24.049   5.573   7.312
 1307SSM    PO415989  24.365   5.510   7.547
 1307SSM    OH115990  24.592   5.451   7.279
 1307SSM    AM215991  24.442   5.674   7.120
 1307SSM    T1A15992  24.654   5.300   6.981
 1307SSM    C2A15993  24.519   5.299   6.650
 1307SSM    C3A15994  24.459   5.343   6.152
 1307SSM    C4A15995  24.717   5.314   5.701
 1307SSM    C1B15996  24.444   5.840   6.784
 1307SSM    C2B15997  24.299   5.768   6.283
 1307SSM    C3B15998  24.343   5.701   5.830
 1307SSM    C4B15999  24.397   5.551   5.393
 1308SSM    NC316000  23.180  16.743   7.795
 1308SSM    PO416001  23.522  16.648   7.653
 1308SSM    OH116002  23.624  16.792   7.351
 1308SSM    AM216003  23.319  16.939   7.313
 1308SSM    T1A16004  23.654  16.890   7.020
 1308SSM    C2A16005  23.644  16.958   6.675
 1308SSM    C3A16006  23.741  16.967   6.168
 1308SSM    C4A16007  23.879  16.942   5.722
 1308SSM    C1B16008  23.184  16.862   6.934
 1308SSM    C2B16009  23.256  16.938   6.391
 1308SSM    C3B16010  23.117  17.045   5.981
 1308SSM    C4B16011  23.479  17.354   5.879
 1309SSM    NC316012  23.470  23.983   7.738
 1309SSM    PO416013  23.287  24.223   7.483
 1309SSM    OH116014  23.280  24.079   7.158
 1309SSM    AM216015  23.311  24.354   7.029
 1309SSM    T1A16016  23.429  23.980   6.872
 1309SSM    C2A16017  23.604  23.915   6.518
 1309SSM    C3A16018  23.765  23.782   6.030
 1309SSM    C4A16019  24.028  23.730   5.597
 1309SSM    C1B16020  23.367  24.399   6.653
 1309SSM    C2B16021  23.302  24.527   6.205
 1309SSM    C3B16022  23.363  24.481   5.759
 1309SSM    C4B16023  23.178  24.194   5.378
 1310SSM    NC316024   4.416   7.790   7.123
 1310SSM    PO416025   4.562   7.495   6.988
 1310SSM    OH116026   4.571   7.612   6.665
 1310SSM    AM216027   4.298   7.647   6.602
 1310SSM    T1A16028   4.741   7.486   6.415
 1310SSM    C2A16029   4.809   7.299   6.083
 1310SSM    C3A16030   4.729   7.047   5.673
 1310SSM    C4A16031   4.658   6.969   5.188
 1310SSM    C1B16032   4.035   7.700   6.362
 1310SSM    C2B16033   4.163   7.848   5.870
 1310SSM    C3B16034   4.516   8.065   5.599
 1310SSM    C4B16035   4.956   7.915   5.440
 1311SSM    NC316036  18.429  30.516   7.572
 1311SSM    PO416037  18.779  30.653   7.443
 1311SSM    OH116038  18.821  30.519   7.097
 1311SSM    AM216039  18.931  30.797   7.033
 1311SSM    T1A16040  18.858  30.418   6.779
 1311SSM    C2A16041  18.792  30.378   6.368
 1311SSM    C3A16042  18.691  30.363   5.914
 1311SSM    C4A16043  18.465  30.298   5.490
 1311SSM    C1B16044  18.889  30.933   6.770
 1311SSM    C2B16045  18.747  30.870   6.336
 1311SSM    C3B16046  18.576  30.862   5.918
 1311SSM    C4B16047  18.374  31.071   5.474
 1312SSM    NC316048  18.516  10.278   7.818
 1312SSM    PO416049  18.769  10.502   8.062
 1312SSM    OH116050  18.881  10.679   7.765
 1312SSM    AM216051  18.859  10.471   7.551
 1312SSM    T1A16052  18.979  10.898   7.516
 1312SSM    C2A16053  18.876  10.813   7.144
 1312SSM    C3A16054  18.757  10.549   6.765
 1312SSM    C4A16055  18.791  10.421   6.305
 1312SSM    C1B16056  18.690  10.346   7.217
 1312SSM    C2B16057  18.742  10.053   6.817
 1312SSM    C3B16058  18.702   9.852   6.358
 1312SSM    C4B16059  18.753   9.703   5.880
 1313SSM    NC316060  35.578  29.300   7.909
 1313SSM    PO416061  35.806  29.545   7.640
 1313SSM    OH116062  35.687  29.533   7.269
 1313SSM    AM216063  35.947  29.676   7.195
 1313SSM    T1A16064  35.556  29.598   6.957
 1313SSM    C2A16065  35.594  29.664   6.538
 1313SSM    C3A16066  35.624  29.787   6.048
 1313SSM    C4A16067  35.500  29.865   5.534
 1313SSM    C1B16068  36.090  29.967   7.047
 1313SSM    C2B16069  35.953  30.470   6.925
 1313SSM    C3B16070  35.684  30.657   6.611
 1313SSM    C4B16071  35.536  31.121   6.424
 1314SSM    NC316072  26.335  30.543   6.930
 1314SSM    PO416073  26.627  30.230   6.940
 1314SSM    OH116074  26.791  30.304   6.587
 1314SSM    AM216075  26.686  30.020   6.497
 1314SSM    T1A16076  26.854  30.323   6.256
 1314SSM    C2A16077  26.665  30.430   5.925
 1314SSM    C3A16078  26.575  30.599   5.480
 1314SSM    C4A16079  26.532  30.942   5.125
 1314SSM    C1B16080  26.476  29.970   6.203
 1314SSM    C2B16081  26.167  30.267   5.915
 1314SSM    C3B16082  26.127  30.249   5.416
 1314SSM    C4B16083  26.134  30.382   4.918
 1315SSM    NC316084  35.651   2.413   7.621
 1315SSM    PO416085  35.493   2.783   7.456
 1315SSM    OH116086  35.383   2.724   7.084
 1315SSM    AM216087  35.483   2.437   7.084
 1315SSM    T1A16088  35.353   2.655   6.733
 1315SSM    C2A16089  35.344   2.652   6.379
 1315SSM    C3A16090  35.592   2.710   5.929
 1315SSM    C4A16091  35.849   2.739   5.574
 1315SSM    C1B16092  35.577   2.285   6.728
 1315SSM    C2B16093  35.889   2.470   6.357
 1315SSM    C3B16094  36.119   2.326   6.022
 1315SSM    C4B16095  36.466   2.114   5.791
 1316SSM    NC316096   3.595  22.186   7.681
 1316SSM    PO416097   3.393  22.430   7.924
 1316SSM    OH116098   3.167  22.557   7.647
 1316SSM    AM216099   3.374  22.491   7.436
 1316SSM    T1A16100   2.953  22.638   7.400
 1316SSM    C2A16101   2.919  22.676   7.014
 1316SSM    C3A16102   2.799  22.798   6.614
 1316SSM    C4A16103   2.756  22.921   6.115
 1316SSM    C1B16104   3.355  22.465   6.999
 1316SSM    C2B16105   3.183  22.552   6.550
 1316SSM    C3B16106   3.253  22.532   6.053
 1316SSM    C4B16107   3.415  22.478   5.676
 1317SSM    NC316108  32.340  13.230   7.751
 1317SSM    PO416109  32.654  13.170   7.546
 1317SSM    OH116110  32.828  13.053   7.236
 1317SSM    AM216111  32.653  13.180   7.048
 1317SSM    T1A16112  33.022  12.917   6.991
 1317SSM    C2A16113  33.115  13.066   6.621
 1317SSM    C3A16114  33.200  13.283   6.202
 1317SSM    C4A16115  32.854  13.339   5.838
 1317SSM    C1B16116  32.624  13.411   6.771
 1317SSM    C2B16117  32.797  13.629   6.322
 1317SSM    C3B16118  32.950  13.846   5.880
 1317SSM    C4B16119  33.094  14.101   5.473
 1318SSM    NC316120  23.626  13.399   7.562
 1318SSM    PO416121  24.012  13.484   7.631
 1318SSM    OH116122  24.300  13.694   7.473
 1318SSM    AM216123  24.218  13.586   7.212
 1318SSM    T1A16124  24.608  13.745   7.322
 1318SSM    C2A16125  24.794  13.734   7.020
 1318SSM    C3A16126  24.860  13.781   6.551
 1318SSM    C4A16127  24.930  13.743   6.070
 1318SSM    C1B16128  24.353  13.569   6.857
 1318SSM    C2B16129  24.412  13.564   6.367
 1318SSM    C3B16130  24.470  13.564   5.887
 1318SSM    C4B16131  24.593  13.404   5.428
 1319SSM    NC316132  16.349  19.116   8.218
 1319SSM    PO416133  16.626  19.157   7.935
 1319SSM    OH116134  16.533  19.225   7.555
 1319SSM    AM216135  16.809  19.176   7.501
 1319SSM    T1A16136  16.474  19.471   7.356
 1319SSM    C2A16137  16.373  19.751   7.123
 1319SSM    C3A16138  16.361  19.829   6.662
 1319SSM    C4A16139  16.501  19.888   6.239
 1319SSM    C1B16140  16.978  18.925   7.266
 1319SSM    C2B16141  17.008  18.975   6.745
 1319SSM    C3B16142  17.156  19.141   6.282
 1319SSM    C4B16143  17.322  19.351   5.873
 1320SSM    NC316144  35.138  23.185   8.226
 1320SSM    PO416145  35.331  23.308   7.909
 1320SSM    OH116146  35.335  23.047   7.639
 1320SSM    AM216147  35.389  23.233   7.404
 1320SSM    T1A16148  35.327  22.785   7.400
 1320SSM    C2A16149  35.432  22.693   6.993
 1320SSM    C3A16150  35.440  22.510   6.571
 1320SSM    C4A16151  35.224  22.369   6.156
 1320SSM    C1B16152  35.322  23.360   7.017
 1320SSM    C2B16153  35.516  23.420   6.497
 1320SSM    C3B16154  35.546  23.529   6.051
 1320SSM    C4B16155  35.690  23.843   5.756
 1321SSM    NC316156   8.652  27.253   7.235
 1321SSM    PO416157   8.446  27.001   7.033
 1321SSM    OH116158   8.543  27.275   6.743
 1321SSM    AM216159   8.312  27.126   6.605
 1321SSM    T1A16160   8.520  27.504   6.504
 1321SSM    C2A16161   8.418  27.825   6.358
 1321SSM    C3A16162   8.305  27.949   5.871
 1321SSM    C4A16163   8.272  28.039   5.428
 1321SSM    C1B16164   7.961  27.209   6.409
 1321SSM    C2B16165   7.726  27.241   5.930
 1321SSM    C3B16166   7.593  27.283   5.519
 1321SSM    C4B16167   7.726  27.305   5.019
 1322SSM    NC316168  28.001  14.228   7.316
 1322SSM    PO416169  28.388  14.336   7.354
 1322SSM    OH116170  28.675  14.219   7.208
 1322SSM    AM216171  28.645  14.409   6.969
 1322SSM    T1A16172  28.817  13.987   6.975
 1322SSM    C2A16173  28.972  13.940   6.621
 1322SSM    C3A16174  29.074  13.928   6.083
 1322SSM    C4A16175  29.270  13.986   5.665
 1322SSM    C1B16176  28.711  14.402   6.594
 1322SSM    C2B16177  28.779  14.361   6.054
 1322SSM    C3B16178  28.729  14.261   5.577
 1322SSM    C4B16179  28.510  14.080   5.135
 1323SSM    NC316180   7.317   2.660   7.380
 1323SSM    PO416181   7.546   2.366   7.435
 1323SSM    OH116182   7.260   2.244   7.199
 1323SSM    AM216183   7.400   2.377   6.972
 1323SSM    T1A16184   7.145   2.076   6.925
 1323SSM    C2A16185   6.989   2.090   6.550
 1323SSM    C3A16186   6.855   1.925   6.090
 1323SSM    C4A16187   6.491   2.143   5.773
 1323SSM    C1B16188   7.417   2.479   6.593
 1323SSM    C2B16189   7.153   2.435   6.149
 1323SSM    C3B16190   6.873   2.487   5.707
 1323SSM    C4B16191   6.477   2.680   5.508
 1324SSM    NC316192  26.174   5.337   7.298
 1324SSM    PO416193  25.908   5.659   7.323
 1324SSM    OH116194  25.603   5.635   7.095
 1324SSM    AM216195  25.779   5.503   6.894
 1324SSM    T1A16196  25.498   5.831   6.847
 1324SSM    C2A16197  25.511   6.083   6.511
 1324SSM    C3A16198  25.438   6.094   6.085
 1324SSM    C4A16199  25.368   5.964   5.645
 1324SSM    C1B16200  25.884   5.384   6.487
 1324SSM    C2B16201  26.070   5.265   6.049
 1324SSM    C3B16202  26.361   5.305   5.674
 1324SSM    C4B16203  26.422   5.244   5.145
 1325SSM    NC316204  34.210   2.589   7.202
 1325SSM    PO416205  33.862   2.451   7.037
 1325SSM    OH116206  33.924   2.276   6.703
 1325SSM    AM216207  33.911   2.548   6.555
 1325SSM    T1A16208  34.205   2.243   6.496
 1325SSM    C2A16209  34.510   2.219   6.214
 1325SSM    C3A16210  34.791   2.115   5.796
 1325SSM    C4A16211  35.191   1.944   5.519
 1325SSM    C1B16212  33.790   2.851   6.385
 1325SSM    C2B16213  33.720   3.148   5.951
 1325SSM    C3B16214  33.678   3.298   5.505
 1325SSM    C4B16215  33.647   3.364   4.986
 1326SSM    NC316216   5.794  30.502   7.743
 1326SSM    PO416217   5.860  30.863   7.721
 1326SSM    OH116218   5.979  30.921   7.369
 1326SSM    AM216219   5.826  30.665   7.292
 1326SSM    T1A16220   5.987  31.005   7.043
 1326SSM    C2A16221   5.910  30.963   6.658
 1326SSM    C3A16222   5.849  31.066   6.210
 1326SSM    C4A16223   5.883  30.905   5.724
 1326SSM    C1B16224   5.905  30.455   7.015
 1326SSM    C2B16225   5.800  30.530   6.493
 1326SSM    C3B16226   5.719  30.522   6.000
 1326SSM    C4B16227   5.553  30.489   5.577
 1327SSM    NC316228  12.191   6.383   7.375
 1327SSM    PO416229  11.928   6.147   7.603
 1327SSM    OH116230  11.730   6.137   7.302
 1327SSM    AM216231  11.767   6.399   7.220
 1327SSM    T1A16232  11.674   5.962   6.990
 1327SSM    C2A16233  11.524   5.921   6.662
 1327SSM    C3A16234  11.602   5.887   6.180
 1327SSM    C4A16235  11.773   5.739   5.735
 1327SSM    C1B16236  11.951   6.647   7.032
 1327SSM    C2B16237  12.062   6.547   6.610
 1327SSM    C3B16238  12.039   6.614   6.187
 1327SSM    C4B16239  12.081   6.651   5.708
 1328SSM    NC316240  33.629  27.062   7.675
 1328SSM    PO416241  33.961  27.273   7.676
 1328SSM    OH116242  34.063  27.146   7.355
 1328SSM    AM216243  33.802  27.201   7.194
 1328SSM    T1A16244  34.115  27.058   7.021
 1328SSM    C2A16245  34.070  27.159   6.675
 1328SSM    C3A16246  34.053  27.108   6.185
 1328SSM    C4A16247  34.021  27.208   5.712
 1328SSM    C1B16248  33.673  27.428   6.866
 1328SSM    C2B16249  33.589  27.745   6.453
 1328SSM    C3B16250  33.526  28.001   6.102
 1328SSM    C4B16251  33.359  27.931   5.615
 1329SSM    NC316252   5.374   2.446   7.351
 1329SSM    PO416253   5.091   2.544   7.638
 1329SSM    OH116254   4.888   2.761   7.432
 1329SSM    AM216255   5.101   2.763   7.219
 1329SSM    T1A16256   4.678   2.902   7.180
 1329SSM    C2A16257   4.704   2.878   6.807
 1329SSM    C3A16258   4.647   2.810   6.314
 1329SSM    C4A16259   4.625   2.627   5.863
 1329SSM    C1B16260   5.123   2.681   6.848
 1329SSM    C2B16261   5.232   2.557   6.299
 1329SSM    C3B16262   5.158   2.643   5.871
 1329SSM    C4B16263   4.932   2.971   5.535
 1330SSM    NC316264   3.309  11.259   7.875
 1330SSM    PO416265   3.663  11.146   7.868
 1330SSM    OH116266   3.806  11.241   7.554
 1330SSM    AM216267   3.548  11.231   7.374
 1330SSM    T1A16268   3.939  11.398   7.267
 1330SSM    C2A16269   4.172  11.493   6.937
 1330SSM    C3A16270   4.291  11.541   6.479
 1330SSM    C4A16271   4.413  11.301   6.069
 1330SSM    C1B16272   3.435  11.259   7.017
 1330SSM    C2B16273   3.331  11.296   6.529
 1330SSM    C3B16274   3.165  11.125   6.127
 1330SSM    C4B16275   2.882  11.195   5.793
 1331SSM    NC316276  27.689  19.176   7.339
 1331SSM    PO416277  27.508  19.445   7.123
 1331SSM    OH116278  27.763  19.683   6.921
 1331SSM    AM216279  27.587  19.607   6.673
 1331SSM    T1A16280  27.923  19.863   6.660
 1331SSM    C2A16281  28.049  20.068   6.345
 1331SSM    C3A16282  27.928  20.045   5.903
 1331SSM    C4A16283  27.845  20.092   5.402
 1331SSM    C1B16284  27.553  19.602   6.323
 1331SSM    C2B16285  27.487  19.718   5.823
 1331SSM    C3B16286  27.422  19.841   5.349
 1331SSM    C4B16287  26.923  19.764   5.240
 1332SSM    NC316288  22.916  16.251   8.301
 1332SSM    PO416289  23.253  16.155   8.154
 1332SSM    OH116290  23.137  16.286   7.832
 1332SSM    AM216291  23.195  16.023   7.652
 1332SSM    T1A16292  23.095  16.414   7.518
 1332SSM    C2A16293  23.214  16.436   7.134
 1332SSM    C3A16294  23.269  16.479   6.620
 1332SSM    C4A16295  23.348  16.521   6.131
 1332SSM    C1B16296  23.386  15.867   7.345
 1332SSM    C2B16297  23.433  16.007   6.854
 1332SSM    C3B16298  23.507  16.092   6.416
 1332SSM    C4B16299  23.661  16.101   5.934
 1333SSM    NC316300  23.117  21.948   7.663
 1333SSM    PO416301  22.991  22.277   7.522
 1333SSM    OH116302  22.954  22.269   7.139
 1333SSM    AM216303  23.036  21.967   7.120
 1333SSM    T1A16304  22.987  22.305   6.821
 1333SSM    C2A16305  23.081  22.103   6.457
 1333SSM    C3A16306  23.173  21.911   6.050
 1333SSM    C4A16307  23.318  21.729   5.575
 1333SSM    C1B16308  23.215  21.709   6.943
 1333SSM    C2B16309  23.187  21.641   6.440
 1333SSM    C3B16310  23.190  21.448   5.979
 1333SSM    C4B16311  22.900  21.261   5.618
 1334SSM    NC316312  28.839  12.397   7.619
 1334SSM    PO416313  29.162  12.640   7.548
 1334SSM    OH116314  29.202  12.695   7.215
 1334SSM    AM216315  28.934  12.585   7.115
 1334SSM    T1A16316  29.297  12.633   6.878
 1334SSM    C2A16317  29.346  12.638   6.480
 1334SSM    C3A16318  29.558  12.646   6.081
 1334SSM    C4A16319  29.693  12.591   5.600
 1334SSM    C1B16320  28.760  12.425   6.946
 1334SSM    C2B16321  28.824  12.442   6.458
 1334SSM    C3B16322  29.051  12.367   6.040
 1334SSM    C4B16323  29.144  11.908   5.846
 1335SSM    NC316324   7.448  19.915   7.782
 1335SSM    PO416325   7.355  19.551   7.603
 1335SSM    OH116326   7.415  19.523   7.270
 1335SSM    AM216327   7.259  19.268   7.169
 1335SSM    T1A16328   7.326  19.652   6.947
 1335SSM    C2A16329   7.159  19.764   6.607
 1335SSM    C3A16330   6.999  19.989   6.149
 1335SSM    C4A16331   6.933  20.338   5.851
 1335SSM    C1B16332   7.222  19.152   6.823
 1335SSM    C2B16333   7.084  19.299   6.323
 1335SSM    C3B16334   6.946  19.434   5.893
 1335SSM    C4B16335   7.172  19.532   5.426
 1336SSM    NC316336  17.036  20.671   7.655
 1336SSM    PO416337  16.671  20.799   7.659
 1336SSM    OH116338  16.779  20.998   7.361
 1336SSM    AM216339  16.512  21.077   7.330
 1336SSM    T1A16340  16.850  21.164   7.072
 1336SSM    C2A16341  16.983  21.299   6.698
 1336SSM    C3A16342  17.095  21.439   6.244
 1336SSM    C4A16343  17.039  21.546   5.769
 1336SSM    C1B16344  16.429  21.417   7.112
 1336SSM    C2B16345  16.542  21.430   6.595
 1336SSM    C3B16346  16.543  21.431   6.063
 1336SSM    C4B16347  16.635  21.427   5.514
 1337SSM    NC316348  34.450  24.454   7.528
 1337SSM    PO416349  34.209  24.579   7.739
 1337SSM    OH116350  33.979  24.830   7.590
 1337SSM    AM216351  34.137  24.886   7.338
 1337SSM    T1A16352  33.862  25.144   7.597
 1337SSM    C2A16353  33.865  25.410   7.277
 1337SSM    C3A16354  34.036  25.388   6.791
 1337SSM    C4A16355  34.188  25.559   6.415
 1337SSM    C1B16356  34.287  25.024   6.961
 1337SSM    C2B16357  34.305  25.069   6.515
 1337SSM    C3B16358  34.245  25.062   5.956
 1337SSM    C4B16359  34.176  24.990   5.523
 1338SSM    NC316360  28.908  21.023   7.497
 1338SSM    PO416361  29.294  20.879   7.450
 1338SSM    OH116362  29.200  20.910   7.137
 1338SSM    AM216363  29.435  21.060   7.042
 1338SSM    T1A16364  29.061  20.986   6.837
 1338SSM    C2A16365  29.035  20.993   6.412
 1338SSM    C3A16366  28.972  21.013   5.905
 1338SSM    C4A16367  28.933  20.935   5.417
 1338SSM    C1B16368  29.458  21.082   6.646
 1338SSM    C2B16369  29.462  21.111   6.141
 1338SSM    C3B16370  29.426  21.009   5.609
 1338SSM    C4B16371  29.480  20.934   5.154
 1339SSM    NC316372   0.816  33.952   7.489
 1339SSM    PO416373   1.123  34.174   7.501
 1339SSM    OH116374   1.346  34.397   7.231
 1339SSM    AM216375   1.275  34.174   7.061
 1339SSM    T1A16376   1.541  34.531   6.958
 1339SSM    C2A16377   1.400  34.416   6.626
 1339SSM    C3A16378   1.317  34.265   6.137
 1339SSM    C4A16379   1.332  34.160   5.619
 1339SSM    C1B16380   1.336  33.980   6.712
 1339SSM    C2B16381   1.256  33.804   6.245
 1339SSM    C3B16382   1.369  33.634   5.839
 1339SSM    C4B16383   1.603  33.364   5.485
 1340SSM    NC316384  14.688  25.664   7.434
 1340SSM    PO416385  15.062  25.854   7.437
 1340SSM    OH116386  15.078  25.852   7.088
 1340SSM    AM216387  15.318  26.051   7.100
 1340SSM    T1A16388  15.168  25.787   6.761
 1340SSM    C2A16389  15.218  25.682   6.367
 1340SSM    C3A16390  15.358  25.895   5.900
 1340SSM    C4A16391  15.566  26.150   5.573
 1340SSM    C1B16392  15.418  26.239   6.759
 1340SSM    C2B16393  15.474  26.325   6.286
 1340SSM    C3B16394  15.746  26.112   6.067
 1340SSM    C4B16395  16.217  26.141   5.821
 1341SSM    NC316396   0.002  16.004   7.919
 1341SSM    PO416397  -0.325  16.202   7.912
 1341SSM    OH116398  -0.230  16.417   7.636
 1341SSM    AM216399  -0.421  16.288   7.445
 1341SSM    T1A16400  -0.130  16.653   7.422
 1341SSM    C2A16401  -0.209  16.650   7.025
 1341SSM    C3A16402  -0.258  16.498   6.508
 1341SSM    C4A16403  -0.063  16.412   6.068
 1341SSM    C1B16404  -0.606  16.253   7.140
 1341SSM    C2B16405  -0.550  16.125   6.673
 1341SSM    C3B16406  -0.470  16.221   6.207
 1341SSM    C4B16407  -0.668  16.460   5.851
 1342SSM    NC316408  14.541  12.597   7.598
 1342SSM    PO416409  14.145  12.523   7.533
 1342SSM    OH116410  13.952  12.586   7.203
 1342SSM    AM216411  13.990  12.270   7.146
 1342SSM    T1A16412  13.922  12.605   6.867
 1342SSM    C2A16413  13.939  12.649   6.489
 1342SSM    C3A16414  14.077  12.735   6.027
 1342SSM    C4A16415  14.376  12.930   5.679
 1342SSM    C1B16416  14.124  12.088   6.825
 1342SSM    C2B16417  14.092  12.178   6.302
 1342SSM    C3B16418  14.117  12.209   5.824
 1342SSM    C4B16419  14.265  12.040   5.418
 1343SSM    NC316420   9.798  19.048   7.370
 1343SSM    PO416421   9.887  19.375   7.151
 1343SSM    OH116422   9.810  19.609   6.926
 1343SSM    AM216423   9.593  19.751   7.045
 1343SSM    T1A16424   9.656  19.678   6.636
 1343SSM    C2A16425   9.565  19.581   6.276
 1343SSM    C3A16426   9.505  19.489   5.791
 1343SSM    C4A16427   9.575  19.379   5.273
 1343SSM    C1B16428   9.325  19.977   6.861
 1343SSM    C2B16429   9.291  19.946   6.379
 1343SSM    C3B16430   9.123  19.848   5.978
 1343SSM    C4B16431   8.890  19.815   5.563
 1344SSM    NC316432  29.439  14.886   7.623
 1344SSM    PO416433  29.367  15.269   7.690
 1344SSM    OH116434  29.120  15.322   7.421
 1344SSM    AM216435  29.364  15.367   7.231
 1344SSM    T1A16436  28.960  15.469   7.137
 1344SSM    C2A16437  28.970  15.729   6.805
 1344SSM    C3A16438  29.070  15.563   6.373
 1344SSM    C4A16439  29.251  15.411   5.972
 1344SSM    C1B16440  29.574  15.466   6.807
 1344SSM    C2B16441  29.623  15.431   6.296
 1344SSM    C3B16442  29.785  15.527   5.879
 1344SSM    C4B16443  30.198  15.663   5.547
 1345SSM    NC316444   8.460  23.440   7.177
 1345SSM    PO416445   8.125  23.223   7.089
 1345SSM    OH116446   8.114  23.194   6.682
 1345SSM    AM216447   7.848  23.315   6.672
 1345SSM    T1A16448   8.016  23.055   6.369
 1345SSM    C2A16449   7.765  22.852   6.104
 1345SSM    C3A16450   7.423  22.778   5.737
 1345SSM    C4A16451   7.114  22.624   5.409
 1345SSM    C1B16452   7.675  23.446   6.332
 1345SSM    C2B16453   7.439  23.565   5.856
 1345SSM    C3B16454   7.374  23.632   5.377
 1345SSM    C4B16455   7.354  23.851   4.949
 1346SSM    NC316456  29.054  11.309   8.020
 1346SSM    PO416457  29.357  11.256   7.783
 1346SSM    OH116458  29.231  11.424   7.470
 1346SSM    AM216459  29.145  11.135   7.414
 1346SSM    T1A16460  29.238  11.474   7.138
 1346SSM    C2A16461  29.186  11.395   6.744
 1346SSM    C3A16462  29.083  11.275   6.286
 1346SSM    C4A16463  28.874  11.026   5.917
 1346SSM    C1B16464  29.045  10.989   7.079
 1346SSM    C2B16465  29.003  10.842   6.583
 1346SSM    C3B16466  29.040  10.609   6.117
 1346SSM    C4B16467  28.927  10.614   5.613
 1347SSM    NC316468   2.232   0.061   7.339
 1347SSM    PO416469   1.922  -0.227   7.355
 1347SSM    OH116470   1.872  -0.228   7.015
 1347SSM    AM216471   1.762  -0.505   6.962
 1347SSM    T1A16472   1.802  -0.169   6.692
 1347SSM    C2A16473   1.865  -0.363   6.356
 1347SSM    C3A16474   1.893  -0.540   5.915
 1347SSM    C4A16475   1.903  -0.579   5.396
 1347SSM    C1B16476   1.528  -0.642   6.739
 1347SSM    C2B16477   1.324  -0.722   6.304
 1347SSM    C3B16478   1.417  -0.787   5.916
 1347SSM    C4B16479   1.464  -0.827   5.433
 1348SSM    NC316480   9.571  15.454   8.033
 1348SSM    PO416481   9.487  15.113   7.886
 1348SSM    OH116482   9.577  15.204   7.547
 1348SSM    AM216483   9.305  15.140   7.442
 1348SSM    T1A16484   9.636  15.196   7.212
 1348SSM    C2A16485   9.424  15.180   6.813
 1348SSM    C3A16486   9.256  15.209   6.451
 1348SSM    C4A16487   9.272  15.169   5.940
 1348SSM    C1B16488   9.152  14.899   7.155
 1348SSM    C2B16489   9.252  14.685   6.676
 1348SSM    C3B16490   9.149  14.701   6.251
 1348SSM    C4B16491   8.828  14.889   5.987
 1349SSM    NC316492  14.863   8.043   8.004
 1349SSM    PO416493  14.808   8.391   7.805
 1349SSM    OH116494  14.725   8.582   7.488
 1349SSM    AM216495  14.452   8.411   7.442
 1349SSM    T1A16496  14.719   8.721   7.167
 1349SSM    C2A16497  14.694   8.660   6.784
 1349SSM    C3A16498  14.721   8.640   6.300
 1349SSM    C4A16499  14.886   8.593   5.836
 1349SSM    C1B16500  14.263   8.334   7.101
 1349SSM    C2B16501  14.334   8.054   6.706
 1349SSM    C3B16502  14.284   8.050   6.196
 1349SSM    C4B16503  14.324   8.410   5.843
 1350SSM    NC316504  19.363  24.635   8.262
 1350SSM    PO416505  19.305  24.772   7.921
 1350SSM    OH116506  19.406  24.595   7.581
 1350SSM    AM216507  19.360  24.864   7.434
 1350SSM    T1A16508  19.206  24.482   7.339
 1350SSM    C2A16509  19.152  24.471   6.951
 1350SSM    C3A16510  19.236  24.329   6.548
 1350SSM    C4A16511  19.456  24.069   6.222
 1350SSM    C1B16512  19.242  24.950   7.062
 1350SSM    C2B16513  19.320  24.832   6.540
 1350SSM    C3B16514  19.358  24.560   6.126
 1350SSM    C4B16515  19.087  24.197   5.852
 1351SSM    NC316516  25.994  29.223   7.357
 1351SSM    PO416517  25.893  29.563   7.150
 1351SSM    OH116518  26.024  29.653   6.802
 1351SSM    AM216519  25.781  29.491   6.689
 1351SSM    T1A16520  26.186  29.608   6.487
 1351SSM    C2A16521  26.123  29.677   6.104
 1351SSM    C3A16522  26.101  29.794   5.626
 1351SSM    C4A16523  26.129  29.764   5.140
 1351SSM    C1B16524  25.605  29.580   6.357
 1351SSM    C2B16525  25.645  29.563   5.828
 1351SSM    C3B16526  25.640  29.554   5.350
 1351SSM    C4B16527  25.494  29.591   4.887
 1352SSM    NC316528  28.468  33.182   6.913
 1352SSM    PO416529  28.170  33.309   7.074
 1352SSM    OH116530  27.945  33.460   6.870
 1352SSM    AM216531  27.902  33.213   6.691
 1352SSM    T1A16532  27.821  33.604   6.567
 1352SSM    C2A16533  27.669  33.675   6.198
 1352SSM    C3A16534  27.624  33.736   5.746
 1352SSM    C4A16535  27.438  33.871   5.261
 1352SSM    C1B16536  27.763  33.015   6.352
 1352SSM    C2B16537  27.716  33.161   5.823
 1352SSM    C3B16538  27.888  33.342   5.428
 1352SSM    C4B16539  28.303  33.567   5.248
 1353SSM    NC316540  25.059   0.478   7.211
 1353SSM    PO416541  24.878   0.683   7.481
 1353SSM    OH116542  24.978   0.922   7.177
 1353SSM    AM216543  24.688   0.969   7.106
 1353SSM    T1A16544  25.035   1.028   6.873
 1353SSM    C2A16545  24.986   0.965   6.475
 1353SSM    C3A16546  25.428   1.011   6.180
 1353SSM    C4A16547  25.591   1.180   5.697
 1353SSM    C1B16548  24.574   1.079   6.778
 1353SSM    C2B16549  24.502   1.186   6.272
 1353SSM    C3B16550  24.608   1.179   5.821
 1353SSM    C4B16551  24.727   1.284   5.375
 1354SSM    NC316552  19.845  19.074   7.903
 1354SSM    PO416553  20.011  19.409   7.962
 1354SSM    OH116554  20.278  19.220   7.755
 1354SSM    AM216555  20.227  19.439   7.542
 1354SSM    T1A16556  20.402  19.057   7.455
 1354SSM    C2A16557  20.758  18.972   7.155
 1354SSM    C3A16558  20.895  19.054   6.680
 1354SSM    C4A16559  20.802  19.094   6.237
 1354SSM    C1B16560  20.011  19.573   7.273
 1354SSM    C2B16561  19.976  19.583   6.733
 1354SSM    C3B16562  20.027  19.680   6.262
 1354SSM    C4B16563  20.266  19.706   5.804
 1355SSM    NC316564  12.932  18.512   7.614
 1355SSM    PO416565  13.270  18.647   7.801
 1355SSM    OH116566  13.549  18.423   7.660
 1355SSM    AM216567  13.397  18.373   7.394
 1355SSM    T1A16568  13.842  18.320   7.503
 1355SSM    C2A16569  13.981  17.995   7.235
 1355SSM    C3A16570  14.123  17.851   6.812
 1355SSM    C4A16571  14.171  17.805   6.337
 1355SSM    C1B16572  13.618  18.304   7.070
 1355SSM    C2B16573  13.778  18.170   6.575
 1355SSM    C3B16574  13.863  18.167   6.142
 1355SSM    C4B16575  14.198  18.096   5.814
 1356SSM    NC316576  25.175   6.730   8.043
 1356SSM    PO416577  24.834   6.758   7.827
 1356SSM    OH116578  24.886   6.991   7.577
 1356SSM    AM216579  24.856   6.781   7.355
 1356SSM    T1A16580  24.941   7.171   7.302
 1356SSM    C2A16581  25.064   7.321   6.965
 1356SSM    C3A16582  25.065   7.596   6.526
 1356SSM    C4A16583  25.098   7.704   6.049
 1356SSM    C1B16584  24.914   6.715   7.045
 1356SSM    C2B16585  24.792   6.730   6.523
 1356SSM    C3B16586  24.741   6.679   6.073
 1356SSM    C4B16587  24.624   7.075   5.767
 1357SSM    NC316588  33.281  23.002   7.805
 1357SSM    PO416589  33.670  23.139   7.948
 1357SSM    OH116590  33.986  23.174   7.769
 1357SSM    AM216591  33.841  23.326   7.532
 1357SSM    T1A16592  34.293  23.146   7.594
 1357SSM    C2A16593  34.481  23.279   7.302
 1357SSM    C3A16594  34.789  23.394   6.974
 1357SSM    C4A16595  35.025  23.456   6.523
 1357SSM    C1B16596  33.746  23.447   7.172
 1357SSM    C2B16597  33.794  23.656   6.706
 1357SSM    C3B16598  33.822  23.890   6.295
 1357SSM    C4B16599  33.893  24.238   5.962
 1358SSM    NC316600  19.997  21.806   8.240
 1358SSM    PO416601  20.165  21.885   7.871
 1358SSM    OH116602  20.228  21.651   7.591
 1358SSM    AM216603  20.245  21.850   7.361
 1358SSM    T1A16604  20.037  21.497   7.347
 1358SSM    C2A16605  20.154  21.418   6.995
 1358SSM    C3A16606  20.276  21.313   6.537
 1358SSM    C4A16607  20.128  21.042   6.154
 1358SSM    C1B16608  20.028  22.017   7.081
 1358SSM    C2B16609  20.032  22.026   6.563
 1358SSM    C3B16610  20.064  21.994   6.079
 1358SSM    C4B16611  20.420  21.829   5.786
 1359SSM    NC316612  30.960  30.365   7.860
 1359SSM    PO416613  31.358  30.337   7.790
 1359SSM    OH116614  31.418  30.035   7.550
 1359SSM    AM216615  31.439  30.254   7.313
 1359SSM    T1A16616  31.472  29.809   7.282
 1359SSM    C2A16617  31.511  29.767   6.906
 1359SSM    C3A16618  31.881  29.753   6.557
 1359SSM    C4A16619  32.151  29.711   6.210
 1359SSM    C1B16620  31.521  30.379   6.978
 1359SSM    C2B16621  31.572  30.218   6.512
 1359SSM    C3B16622  31.728  30.009   6.075
 1359SSM    C4B16623  31.621  29.830   5.625
 1360SSM    NC316624  34.808  29.414   8.300
 1360SSM    PO416625  34.779  29.758   8.150
 1360SSM    OH116626  34.581  29.950   7.898
 1360SSM    AM216627  34.591  29.746   7.657
 1360SSM    T1A16628  34.423  30.161   7.680
 1360SSM    C2A16629  34.268  30.356   7.347
 1360SSM    C3A16630  34.080  30.473   6.900
 1360SSM    C4A16631  34.048  30.473   6.397
 1360SSM    C1B16632  34.782  29.684   7.309
 1360SSM    C2B16633  34.748  29.761   6.828
 1360SSM    C3B16634  34.714  29.746   6.314
 1360SSM    C4B16635  34.568  29.860   5.863
 1361SSM    NC316636  32.892   3.891   7.198
 1361SSM    PO416637  32.490   3.826   7.141
 1361SSM    OH116638  32.280   4.151   7.021
 1361SSM    AM216639  32.575   4.273   6.994
 1361SSM    T1A16640  32.242   4.349   6.735
 1361SSM    C2A16641  32.229   4.423   6.311
 1361SSM    C3A16642  32.309   4.580   5.846
 1361SSM    C4A16643  32.381   4.903   5.504
 1361SSM    C1B16644  32.788   4.205   6.614
 1361SSM    C2B16645  32.669   4.270   6.144
 1361SSM    C3B16646  32.618   4.169   5.647
 1361SSM    C4B16647  32.974   3.975   5.381
 1362SSM    NC316648  24.827  29.713   7.430
 1362SSM    PO416649  24.904  29.564   7.071
 1362SSM    OH116650  24.823  29.395   6.774
 1362SSM    AM216651  24.540  29.411   6.825
 1362SSM    T1A16652  24.688  29.353   6.440
 1362SSM    C2A16653  24.600  29.275   5.998
 1362SSM    C3A16654  24.610  29.110   5.599
 1362SSM    C4A16655  24.562  29.207   5.140
 1362SSM    C1B16656  24.221  29.490   6.770
 1362SSM    C2B16657  23.903  29.787   6.441
 1362SSM    C3B16658  23.910  29.858   5.976
 1362SSM    C4B16659  23.784  29.895   5.506
 1363SSM    NC316660  28.138   7.706   7.553
 1363SSM    PO416661  28.441   7.484   7.516
 1363SSM    OH116662  28.621   7.418   7.187
 1363SSM    AM216663  28.595   7.708   7.124
 1363SSM    T1A16664  28.803   7.396   6.904
 1363SSM    C2A16665  28.758   7.491   6.502
 1363SSM    C3A16666  28.597   7.488   6.052
 1363SSM    C4A16667  28.678   7.347   5.596
 1363SSM    C1B16668  28.561   8.045   6.850
 1363SSM    C2B16669  28.550   7.988   6.343
 1363SSM    C3B16670  28.305   7.966   5.908
 1363SSM    C4B16671  28.317   7.679   5.540
 1364SSM    NC316672  28.418  20.493   7.206
 1364SSM    PO416673  28.769  20.688   7.131
 1364SSM    OH116674  29.043  20.560   6.916
 1364SSM    AM216675  28.876  20.602   6.651
 1364SSM    T1A16676  29.351  20.609   6.738
 1364SSM    C2A16677  29.363  20.593   6.344
 1364SSM    C3A16678  29.393  20.574   5.875
 1364SSM    C4A16679  29.607  20.568   5.446
 1364SSM    C1B16680  28.836  20.489   6.268
 1364SSM    C2B16681  28.846  20.555   5.807
 1364SSM    C3B16682  28.849  20.450   5.328
 1364SSM    C4B16683  29.195  20.396   5.033
 1365SSM    NC316684  12.068  23.784   7.581
 1365SSM    PO416685  12.330  23.564   7.411
 1365SSM    OH116686  12.601  23.539   7.144
 1365SSM    AM216687  12.500  23.230   7.092
 1365SSM    T1A16688  12.642  23.548   6.818
 1365SSM    C2A16689  12.670  23.309   6.503
 1365SSM    C3A16690  12.720  23.141   6.047
 1365SSM    C4A16691  12.582  22.946   5.614
 1365SSM    C1B16692  12.353  23.045   6.725
 1365SSM    C2B16693  11.996  22.861   6.358
 1365SSM    C3B16694  11.957  22.571   5.936
 1365SSM    C4B16695  11.912  22.262   5.566
 1366SSM    NC316696  12.144  11.068   7.620
 1366SSM    PO416697  12.076  11.377   7.421
 1366SSM    OH116698  11.792  11.513   7.257
 1366SSM    AM216699  11.942  11.763   7.161
 1366SSM    T1A16700  11.572  11.556   7.001
 1366SSM    C2A16701  11.355  11.442   6.641
 1366SSM    C3A16702  11.116  11.611   6.282
 1366SSM    C4A16703  10.740  11.899   6.030
 1366SSM    C1B16704  12.021  11.986   6.839
 1366SSM    C2B16705  12.063  11.949   6.297
 1366SSM    C3B16706  11.997  11.828   5.814
 1366SSM    C4B16707  12.012  11.426   5.582
 1367SSM    NC316708   0.861  30.863   7.960
 1367SSM    PO416709   0.633  30.720   7.660
 1367SSM    OH116710   0.778  30.623   7.327
 1367SSM    AM216711   0.540  30.595   7.170
 1367SSM    T1A16712   0.876  30.404   7.061
 1367SSM    C2A16713   0.880  30.406   6.625
 1367SSM    C3A16714   0.907  30.478   6.124
 1367SSM    C4A16715   0.809  30.418   5.673
 1367SSM    C1B16716   0.440  30.710   6.770
 1367SSM    C2B16717   0.481  30.729   6.296
 1367SSM    C3B16718   0.472  30.748   5.835
 1367SSM    C4B16719   0.735  30.779   5.376
 1368SSM    NC316720  32.031  22.889   7.449
 1368SSM    PO416721  31.720  23.083   7.597
 1368SSM    OH116722  31.489  23.185   7.332
 1368SSM    AM216723  31.548  22.901   7.225
 1368SSM    T1A16724  31.329  23.259   7.042
 1368SSM    C2A16725  31.259  23.302   6.622
 1368SSM    C3A16726  31.103  23.283   6.159
 1368SSM    C4A16727  30.968  23.336   5.640
 1368SSM    C1B16728  31.618  22.749   6.822
 1368SSM    C2B16729  31.459  22.854   6.324
 1368SSM    C3B16730  31.267  22.814   5.894
 1368SSM    C4B16731  31.066  22.839   5.573
 1369SSM    NC316732   6.048  11.305   7.594
 1369SSM    PO416733   5.684  11.362   7.764
 1369SSM    OH116734   5.476  11.480   7.460
 1369SSM    AM216735   5.755  11.609   7.369
 1369SSM    T1A16736   5.377  11.512   7.129
 1369SSM    C2A16737   5.342  11.621   6.727
 1369SSM    C3A16738   5.440  11.381   6.344
 1369SSM    C4A16739   5.406  10.884   6.236
 1369SSM    C1B16740   5.985  11.791   7.096
 1369SSM    C2B16741   6.031  11.989   6.601
 1369SSM    C3B16742   5.980  12.170   6.171
 1369SSM    C4B16743   5.596  12.241   5.846
 1370SSM    NC316744   9.020  14.413   7.521
 1370SSM    PO416745   8.729  14.638   7.600
 1370SSM    OH116746   8.488  14.743   7.317
 1370SSM    AM216747   8.647  14.969   7.251
 1370SSM    T1A16748   8.272  14.707   7.042
 1370SSM    C2A16749   8.072  14.740   6.711
 1370SSM    C3A16750   8.021  14.815   6.270
 1370SSM    C4A16751   7.949  14.765   5.773
 1370SSM    C1B16752   8.792  15.160   6.916
 1370SSM    C2B16753   8.870  15.539   6.628
 1370SSM    C3B16754   9.125  15.671   6.276
 1370SSM    C4B16755   9.555  15.607   6.050
 1371SSM    NC316756  15.346  32.896   7.592
 1371SSM    PO416757  15.591  33.056   7.338
 1371SSM    OH116758  15.444  33.283   7.062
 1371SSM    AM216759  15.682  33.197   6.918
 1371SSM    T1A16760  15.280  33.320   6.773
 1371SSM    C2A16761  15.332  33.450   6.362
 1371SSM    C3A16762  15.145  33.824   6.096
 1371SSM    C4A16763  14.911  34.230   6.137
 1371SSM    C1B16764  15.773  33.264   6.530
 1371SSM    C2B16765  15.942  33.287   6.078
 1371SSM    C3B16766  15.821  33.279   5.637
 1371SSM    C4B16767  15.725  33.148   5.187
 1372SSM    NC316768  33.111  16.650   8.231
 1372SSM    PO416769  32.821  16.786   8.045
 1372SSM    OH116770  32.856  17.086   7.829
 1372SSM    AM216771  32.764  16.924   7.585
 1372SSM    T1A16772  32.966  17.319   7.603
 1372SSM    C2A16773  33.010  17.454   7.226
 1372SSM    C3A16774  33.102  17.542   6.762
 1372SSM    C4A16775  33.097  17.790   6.281
 1372SSM    C1B16776  32.853  16.892   7.178
 1372SSM    C2B16777  32.992  16.988   6.647
 1372SSM    C3B16778  33.272  16.970   6.258
 1372SSM    C4B16779  33.729  16.968   6.063
 1373SSM    NC316780  28.960   6.565   7.145
 1373SSM    PO416781  29.342   6.612   7.061
 1373SSM    OH116782  29.575   6.547   6.842
 1373SSM    AM216783  29.588   6.250   6.834
 1373SSM    T1A16784  29.736   6.471   6.532
 1373SSM    C2A16785  29.982   6.423   6.284
 1373SSM    C3A16786  30.028   6.365   5.785
 1373SSM    C4A16787  30.181   6.277   5.329
 1373SSM    C1B16788  29.718   5.944   6.644
 1373SSM    C2B16789  29.620   5.954   6.149
 1373SSM    C3B16790  29.589   6.057   5.663
 1373SSM    C4B16791  29.454   5.948   5.204
 1374SSM    NC316792  18.279  33.377   7.510
 1374SSM    PO416793  17.917  33.257   7.470
 1374SSM    OH116794  18.069  33.145   7.141
 1374SSM    AM216795  18.118  33.439   7.052
 1374SSM    T1A16796  17.973  33.095   6.805
 1374SSM    C2A16797  17.914  33.175   6.408
 1374SSM    C3A16798  17.728  33.096   6.007
 1374SSM    C4A16799  17.627  33.179   5.557
 1374SSM    C1B16800  18.066  33.685   6.772
 1374SSM    C2B16801  18.045  33.629   6.267
 1374SSM    C3B16802  18.024  33.606   5.750
 1374SSM    C4B16803  18.253  33.634   5.330
 1375SSM    NC316804  18.237  23.357   7.756
 1375SSM    PO416805  18.372  23.028   7.562
 1375SSM    OH116806  18.430  23.080   7.176
 1375SSM    AM216807  18.434  22.776   7.146
 1375SSM    T1A16808  18.410  23.163   6.832
 1375SSM    C2A16809  18.229  23.101   6.462
 1375SSM    C3A16810  18.260  23.163   5.974
 1375SSM    C4A16811  18.342  23.231   5.480
 1375SSM    C1B16812  18.430  22.546   6.900
 1375SSM    C2B16813  18.432  22.514   6.377
 1375SSM    C3B16814  18.467  22.553   5.901
 1375SSM    C4B16815  18.369  22.462   5.423
 1376SSM    NC316816  35.303  32.608   7.815
 1376SSM    PO416817  34.997  32.520   8.030
 1376SSM    OH116818  34.753  32.366   7.760
 1376SSM    AM216819  34.982  32.205   7.671
 1376SSM    T1A16820  34.619  32.299   7.454
 1376SSM    C2A16821  34.808  32.359   7.108
 1376SSM    C3A16822  35.108  32.311   6.745
 1376SSM    C4A16823  35.497  32.302   6.469
 1376SSM    C1B16824  35.123  31.854   7.529
 1376SSM    C2B16825  34.990  31.884   7.043
 1376SSM    C3B16826  34.900  31.839   6.554
 1376SSM    C4B16827  35.023  31.941   6.140
 1377SSM    NC316828  10.305  23.381   6.870
 1377SSM    PO416829   9.980  23.234   6.792
 1377SSM    OH116830  10.029  22.969   6.597
 1377SSM    AM216831  10.282  23.066   6.457
 1377SSM    T1A16832  10.031  22.697   6.379
 1377SSM    C2A16833   9.977  22.851   5.997
 1377SSM    C3A16834  10.142  22.967   5.655
 1377SSM    C4A16835  10.306  22.932   5.198
 1377SSM    C1B16836  10.502  23.047   6.039
 1377SSM    C2B16837  10.688  22.950   5.559
 1377SSM    C3B16838  10.815  22.919   5.116
 1377SSM    C4B16839  10.996  22.981   4.612
 1378SSM    NC316840  18.072   9.387   8.084
 1378SSM    PO416841  17.813   9.105   7.865
 1378SSM    OH116842  17.862   9.181   7.516
 1378SSM    AM216843  17.563   9.169   7.443
 1378SSM    T1A16844  18.023   9.219   7.186
 1378SSM    C2A16845  18.022   9.309   6.770
 1378SSM    C3A16846  17.717   9.400   6.332
 1378SSM    C4A16847  17.465   9.645   5.904
 1378SSM    C1B16848  17.222   9.052   7.288
 1378SSM    C2B16849  16.909   9.090   6.889
 1378SSM    C3B16850  16.721   8.993   6.443
 1378SSM    C4B16851  16.688   8.863   5.965
 1379SSM    NC316852  25.304  21.891   7.796
 1379SSM    PO416853  25.227  21.497   7.802
 1379SSM    OH116854  25.212  21.337   7.441
 1379SSM    AM216855  25.193  21.628   7.337
 1379SSM    T1A16856  25.217  21.252   7.126
 1379SSM    C2A16857  25.171  21.272   6.723
 1379SSM    C3A16858  25.099  21.258   6.254
 1379SSM    C4A16859  25.099  21.261   5.779
 1379SSM    C1B16860  25.250  21.836   7.028
 1379SSM    C2B16861  25.139  21.838   6.488
 1379SSM    C3B16862  25.090  21.800   6.072
 1379SSM    C4B16863  25.095  21.873   5.577
 1380SSM    NC316864  21.961  33.254   7.550
 1380SSM    PO416865  22.349  33.226   7.474
 1380SSM    OH116866  22.381  33.014   7.153
 1380SSM    AM216867  22.157  33.148   6.999
 1380SSM    T1A16868  22.431  32.874   6.858
 1380SSM    C2A16869  22.422  32.743   6.479
 1380SSM    C3A16870  22.644  32.713   6.103
 1380SSM    C4A16871  22.721  32.727   5.566
 1380SSM    C1B16872  22.003  33.093   6.662
 1380SSM    C2B16873  21.978  33.016   6.093
 1380SSM    C3B16874  21.804  32.771   5.674
 1380SSM    C4B16875  21.390  32.886   5.437
 1381SSM    NC316876  22.442   1.256   7.586
 1381SSM    PO416877  22.604   1.322   7.217
 1381SSM    OH116878  22.614   1.340   6.892
 1381SSM    AM216879  22.548   1.066   6.801
 1381SSM    T1A16880  22.817   1.373   6.628
 1381SSM    C2A16881  22.906   1.315   6.241
 1381SSM    C3A16882  22.846   1.239   5.789
 1381SSM    C4A16883  23.017   1.495   5.383
 1381SSM    C1B16884  22.600   0.838   6.480
 1381SSM    C2B16885  22.739   0.736   6.055
 1381SSM    C3B16886  22.780   0.782   5.631
 1381SSM    C4B16887  22.921   0.752   5.127
 1382SSM    NC316888  24.289  21.804   7.702
 1382SSM    PO416889  24.387  21.392   7.619
 1382SSM    OH116890  24.117  21.429   7.380
 1382SSM    AM216891  24.309  21.508   7.132
 1382SSM    T1A16892  23.833  21.466   7.162
 1382SSM    C2A16893  23.711  21.404   6.803
 1382SSM    C3A16894  23.597  21.405   6.291
 1382SSM    C4A16895  23.690  21.423   5.762
 1382SSM    C1B16896  24.282  21.434   6.752
 1382SSM    C2B16897  24.359  21.255   6.237
 1382SSM    C3B16898  24.094  21.058   5.935
 1382SSM    C4B16899  23.782  20.896   5.566
 1383SSM    NC316900  31.059  15.021   7.775
 1383SSM    PO416901  31.105  14.637   7.637
 1383SSM    OH116902  31.023  14.394   7.374
 1383SSM    AM216903  31.275  14.331   7.247
 1383SSM    T1A16904  30.800  14.361   7.122
 1383SSM    C2A16905  30.650  14.317   6.754
 1383SSM    C3A16906  30.506  14.220   6.335
 1383SSM    C4A16907  30.176  14.454   6.095
 1383SSM    C1B16908  31.461  14.413   6.895
 1383SSM    C2B16909  31.658  14.565   6.390
 1383SSM    C3B16910  31.606  14.561   5.896
 1383SSM    C4B16911  31.584  14.613   5.387
 1384SSM    NC316912  23.788  35.495   7.736
 1384SSM    PO416913  23.895  35.546   7.351
 1384SSM    OH116914  24.162  35.383   7.134
 1384SSM    AM216915  23.990  35.480   6.884
 1384SSM    T1A16916  24.299  35.214   6.861
 1384SSM    C2A16917  24.294  35.354   6.501
 1384SSM    C3A16918  24.296  35.438   6.071
 1384SSM    C4A16919  24.374  35.327   5.611
 1384SSM    C1B16920  23.832  35.482   6.495
 1384SSM    C2B16921  23.603  35.538   6.042
 1384SSM    C3B16922  23.399  35.647   5.655
 1384SSM    C4B16923  23.385  35.679   5.181
 1385SSM    NC316924  14.267  18.313   7.672
 1385SSM    PO416925  13.946  18.143   7.915
 1385SSM    OH116926  13.679  17.985   7.684
 1385SSM    AM216927  13.784  17.717   7.655
 1385SSM    T1A16928  13.516  17.984   7.365
 1385SSM    C2A16929  13.485  17.825   6.986
 1385SSM    C3A16930  13.599  17.688   6.555
 1385SSM    C4A16931  13.682  17.694   6.044
 1385SSM    C1B16932  13.854  17.517   7.314
 1385SSM    C2B16933  13.884  17.416   6.793
 1385SSM    C3B16934  13.787  17.289   6.338
 1385SSM    C4B16935  13.538  17.163   5.996
 1386SSM    NC316936   9.240  22.707   7.312
 1386SSM    PO416937   8.903  22.655   7.110
 1386SSM    OH116938   9.013  22.456   6.778
 1386SSM    AM216939   8.873  22.687   6.670
 1386SSM    T1A16940   8.860  22.275   6.509
 1386SSM    C2A16941   8.661  22.187   6.171
 1386SSM    C3A16942   8.413  22.486   5.876
 1386SSM    C4A16943   8.235  22.473   5.378
 1386SSM    C1B16944   8.784  22.810   6.320
 1386SSM    C2B16945   8.737  22.824   5.791
 1386SSM    C3B16946   8.590  22.817   5.387
 1386SSM    C4B16947   8.583  22.728   4.904
 1387SSM    NC316948  18.647  11.220   7.689
 1387SSM    PO416949  18.255  11.156   7.644
 1387SSM    OH116950  18.009  11.089   7.339
 1387SSM    AM216951  18.012  11.342   7.202
 1387SSM    T1A16952  17.947  10.964   7.037
 1387SSM    C2A16953  17.915  10.857   6.679
 1387SSM    C3A16954  17.922  10.776   6.253
 1387SSM    C4A16955  18.095  10.640   5.815
 1387SSM    C1B16956  17.977  11.434   6.835
 1387SSM    C2B16957  17.747  11.500   6.441
 1387SSM    C3B16958  17.550  11.443   6.013
 1387SSM    C4B16959  17.267  11.649   5.689
 1388SSM    NC316960   0.749  29.766   7.743
 1388SSM    PO416961   0.832  29.531   7.431
 1388SSM    OH116962   0.632  29.421   7.138
 1388SSM    AM216963   0.856  29.443   6.918
 1388SSM    T1A16964   0.467  29.262   6.897
 1388SSM    C2A16965   0.465  29.104   6.544
 1388SSM    C3A16966   0.509  29.114   6.053
 1388SSM    C4A16967   0.500  29.042   5.617
 1388SSM    C1B16968   1.032  29.546   6.612
 1388SSM    C2B16969   1.297  29.467   6.183
 1388SSM    C3B16970   1.665  29.677   5.929
 1388SSM    C4B16971   1.735  30.134   5.702
 1389SSM    NC316972  30.799   7.587   7.155
 1389SSM    PO416973  30.688   7.990   7.126
 1389SSM    OH116974  30.394   8.085   6.945
 1389SSM    AM216975  30.577   8.232   6.747
 1389SSM    T1A16976  30.177   8.137   6.689
 1389SSM    C2A16977  30.207   8.354   6.345
 1389SSM    C3A16978  30.307   8.468   5.969
 1389SSM    C4A16979  30.671   8.697   5.641
 1389SSM    C1B16980  30.775   8.332   6.396
 1389SSM    C2B16981  30.884   8.315   5.857
 1389SSM    C3B16982  30.904   8.327   5.400
 1389SSM    C4B16983  30.874   8.623   5.001
 1390SSM    NC316984  30.092   2.329   7.876
 1390SSM    PO416985  29.955   2.041   7.680
 1390SSM    OH116986  29.863   2.080   7.307
 1390SSM    AM216987  29.784   2.350   7.376
 1390SSM    T1A16988  29.795   2.197   6.993
 1390SSM    C2A16989  29.727   2.479   6.687
 1390SSM    C3A16990  29.721   2.701   6.306
 1390SSM    C4A16991  29.774   3.000   5.887
 1390SSM    C1B16992  29.735   2.731   7.235
 1390SSM    C2B16993  29.560   3.050   6.818
 1390SSM    C3B16994  29.426   3.133   6.384
 1390SSM    C4B16995  29.119   3.198   6.047
 1391SSM    NC316996  20.089  20.850   8.049
 1391SSM    PO416997  19.748  20.907   7.875
 1391SSM    OH116998  19.845  20.685   7.646
 1391SSM    AM216999  19.825  20.894   7.414
 1391SSM    T1A17000  19.661  20.517   7.413
 1391SSM    C2A17001  19.520  20.355   7.075
 1391SSM    C3A17002  19.530  20.281   6.626
 1391SSM    C4A17003  19.483  20.135   6.155
 1391SSM    C1B17004  19.714  21.074   7.049
 1391SSM    C2B17005  19.710  21.136   6.507
 1391SSM    C3B17006  19.634  21.151   6.007
 1391SSM    C4B17007  19.801  21.080   5.562
 1392SSM    NC317008  15.015  28.970   7.605
 1392SSM    PO417009  14.674  29.151   7.567
 1392SSM    OH117010  14.486  29.288   7.252
 1392SSM    AM217011  14.479  29.550   7.379
 1392SSM    T1A17012  14.475  29.407   6.950
 1392SSM    C2A17013  14.399  29.483   6.578
 1392SSM    C3A17014  14.277  29.558   6.084
 1392SSM    C4A17015  14.176  29.895   5.714
 1392SSM    C1B17016  14.481  29.891   7.115
 1392SSM    C2B17017  14.084  30.268   7.134
 1392SSM    C3B17018  13.694  30.524   7.075
 1392SSM    C4B17019  13.487  30.849   6.831
 1393SSM    NC317020   3.566   8.237   8.048
 1393SSM    PO417021   3.433   8.545   7.892
 1393SSM    OH117022   3.412   8.689   7.596
 1393SSM    AM217023   3.154   8.587   7.491
 1393SSM    T1A17024   3.430   8.919   7.352
 1393SSM    C2A17025   3.331   9.121   7.023
 1393SSM    C3A17026   3.165   9.137   6.529
 1393SSM    C4A17027   3.190   9.011   6.062
 1393SSM    C1B17028   2.761   8.685   7.327
 1393SSM    C2B17029   2.342   8.885   7.195
 1393SSM    C3B17030   2.199   9.318   7.195
 1393SSM    C4B17031   1.911   9.676   7.244
 1394SSM    NC317032  33.094   0.587   7.742
 1394SSM    PO417033  32.828   0.753   7.530
 1394SSM    OH117034  32.870   0.831   7.176
 1394SSM    AM217035  32.628   0.676   7.089
 1394SSM    T1A17036  32.826   0.965   6.874
 1394SSM    C2A17037  32.750   1.079   6.527
 1394SSM    C3A17038  32.643   1.157   6.139
 1394SSM    C4A17039  32.442   1.429   5.805
 1394SSM    C1B17040  32.446   0.651   6.802
 1394SSM    C2B17041  32.476   0.722   6.299
 1394SSM    C3B17042  32.471   0.854   5.852
 1394SSM    C4B17043  32.654   1.089   5.382
 1395SSM    NC317044   6.981  29.321   7.282
 1395SSM    PO417045   6.603  29.290   7.113
 1395SSM    OH117046   6.558  29.188   6.736
 1395SSM    AM217047   6.758  29.401   6.658
 1395SSM    T1A17048   6.445  29.188   6.421
 1395SSM    C2A17049   6.342  29.232   6.057
 1395SSM    C3A17050   6.171  29.310   5.602
 1395SSM    C4A17051   5.857  29.240   5.267
 1395SSM    C1B17052   6.758  29.635   6.330
 1395SSM    C2B17053   6.643  29.776   5.821
 1395SSM    C3B17054   6.558  29.901   5.351
 1395SSM    C4B17055   6.619  29.963   4.879
 1396SSM    NC317056  12.549  26.087   7.068
 1396SSM    PO417057  12.461  26.382   7.320
 1396SSM    OH117058  12.281  26.597   7.039
 1396SSM    AM217059  12.211  26.343   6.894
 1396SSM    T1A17060  12.126  26.793   6.806
 1396SSM    C2A17061  12.073  26.823   6.387
 1396SSM    C3A17062  12.347  26.840   5.981
 1396SSM    C4A17063  12.492  27.113   5.621
 1396SSM    C1B17064  12.083  26.249   6.569
 1396SSM    C2B17065  11.898  26.345   6.127
 1396SSM    C3B17066  11.820  26.614   5.717
 1396SSM    C4B17067  12.036  27.026   5.544
 1397SSM    NC317068  25.918  22.190   7.801
 1397SSM    PO417069  25.812  21.801   7.907
 1397SSM    OH117070  26.045  21.622   7.644
 1397SSM    AM217071  26.215  21.872   7.641
 1397SSM    T1A17072  26.087  21.644   7.309
 1397SSM    C2A17073  26.111  21.711   6.942
 1397SSM    C3A17074  26.071  21.727   6.492
 1397SSM    C4A17075  25.986  21.554   6.055
 1397SSM    C1B17076  26.140  22.121   7.328
 1397SSM    C2B17077  26.102  22.199   6.795
 1397SSM    C3B17078  26.238  22.203   6.293
 1397SSM    C4B17079  26.352  22.253   5.828
 1398SSM    NC317080  18.676  35.329   7.830
 1398SSM    PO417081  18.482  35.479   7.530
 1398SSM    OH117082  18.410  35.305   7.215
 1398SSM    AM217083  18.123  35.433   7.193
 1398SSM    T1A17084  18.336  35.171   6.923
 1398SSM    C2A17085  18.360  35.209   6.506
 1398SSM    C3A17086  18.438  35.218   6.011
 1398SSM    C4A17087  18.629  34.947   5.590
 1398SSM    C1B17088  17.967  35.760   6.996
 1398SSM    C2B17089  17.786  35.920   6.511
 1398SSM    C3B17090  17.454  35.939   6.156
 1398SSM    C4B17091  17.495  35.828   5.662
 1399SSM    NC317092  31.744  28.506   7.880
 1399SSM    PO417093  31.595  28.884   7.812
 1399SSM    OH117094  31.396  29.000   7.505
 1399SSM    AM217095  31.655  29.147   7.391
 1399SSM    T1A17096  31.288  29.110   7.197
 1399SSM    C2A17097  31.304  29.308   6.864
 1399SSM    C3A17098  31.321  29.523   6.410
 1399SSM    C4A17099  31.311  29.595   5.937
 1399SSM    C1B17100  31.778  29.252   7.084
 1399SSM    C2B17101  32.044  29.262   6.704
 1399SSM    C3B17102  32.330  29.281   6.314
 1399SSM    C4B17103  32.424  29.350   5.840
 1400SSM    NC317104   5.735   3.918   7.241
 1400SSM    PO417105   5.417   3.726   7.443
 1400SSM    OH117106   5.215   3.426   7.366
 1400SSM    AM217107   5.065   3.620   7.177
 1400SSM    T1A17108   5.026   3.151   7.254
 1400SSM    C2A17109   5.024   3.217   6.874
 1400SSM    C3A17110   4.869   3.347   6.412
 1400SSM    C4A17111   4.937   3.102   6.019
 1400SSM    C1B17112   5.069   3.674   6.772
 1400SSM    C2B17113   5.147   3.742   6.321
 1400SSM    C3B17114   5.265   3.595   5.939
 1400SSM    C4B17115   5.256   3.499   5.415
 1401SSM    NC317116  35.956  17.182   8.312
 1401SSM    PO417117  36.110  17.143   7.943
 1401SSM    OH117118  36.006  17.372   7.690
 1401SSM    AM217119  36.193  17.265   7.467
 1401SSM    T1A17120  35.790  17.403   7.420
 1401SSM    C2A17121  35.751  17.157   7.082
 1401SSM    C3A17122  35.632  16.970   6.624
 1401SSM    C4A17123  35.685  16.907   6.133
 1401SSM    C1B17124  36.221  16.942   7.226
 1401SSM    C2B17125  36.189  17.025   6.697
 1401SSM    C3B17126  35.982  17.279   6.394
 1401SSM    C4B17127  36.204  17.565   6.004
 1402SSM    NC317128  13.287  22.799   7.305
 1402SSM    PO417129  13.631  23.038   7.299
 1402SSM    OH117130  13.707  22.895   6.949
 1402SSM    AM217131  13.998  22.910   7.046
 1402SSM    T1A17132  13.804  22.746   6.631
 1402SSM    C2A17133  13.952  22.602   6.345
 1402SSM    C3A17134  14.023  22.388   5.929
 1402SSM    C4A17135  14.092  22.069   5.541
 1402SSM    C1B17136  14.355  22.763   7.049
 1402SSM    C2B17137  14.458  22.563   6.560
 1402SSM    C3B17138  14.573  22.415   6.129
 1402SSM    C4B17139  14.574  22.250   5.678
 1403SSM    NC317140   6.335  10.639   7.323
 1403SSM    PO417141   6.077  10.714   7.560
 1403SSM    OH117142   5.746  10.800   7.503
 1403SSM    AM217143   5.738  11.078   7.326
 1403SSM    T1A17144   5.426  10.677   7.414
 1403SSM    C2A17145   5.310  10.933   7.130
 1403SSM    C3A17146   5.493  11.048   6.690
 1403SSM    C4A17147   5.833  11.054   6.383
 1403SSM    C1B17148   5.822  11.213   7.004
 1403SSM    C2B17149   5.892  11.511   6.589
 1403SSM    C3B17150   6.054  11.655   6.184
 1403SSM    C4B17151   6.156  11.885   5.691
 1404SSM    NC317152  30.690  32.562   7.061
 1404SSM    PO417153  31.057  32.616   7.239
 1404SSM    OH117154  31.323  32.643   6.989
 1404SSM    AM217155  31.399  32.357   7.011
 1404SSM    T1A17156  31.381  32.639   6.637
 1404SSM    C2A17157  31.463  32.590   6.248
 1404SSM    C3A17158  31.521  32.753   5.779
 1404SSM    C4A17159  31.351  32.596   5.337
 1404SSM    C1B17160  31.515  32.142   6.734
 1404SSM    C2B17161  31.537  32.130   6.204
 1404SSM    C3B17162  31.522  32.246   5.727
 1404SSM    C4B17163  31.505  32.034   5.316
 1405SSM    NC317164   9.863   7.723   7.173
 1405SSM    PO417165  10.246   7.616   7.208
 1405SSM    OH117166  10.250   7.559   6.801
 1405SSM    AM217167  10.539   7.657   6.843
 1405SSM    T1A17168  10.239   7.777   6.518
 1405SSM    C2A17169  10.288   7.654   6.124
 1405SSM    C3A17170  10.423   7.710   5.699
 1405SSM    C4A17171  10.211   7.280   5.418
 1405SSM    C1B17172  10.962   7.559   6.745
 1405SSM    C2B17173  11.271   7.383   6.370
 1405SSM    C3B17174  11.287   7.224   5.925
 1405SSM    C4B17175  11.441   7.076   5.454
 1406SSM    NC317176  11.149   3.511   6.917
 1406SSM    PO417177  11.109   3.890   7.113
 1406SSM    OH117178  10.767   3.997   6.979
 1406SSM    AM217179  10.717   3.746   6.853
 1406SSM    T1A17180  10.540   4.115   6.735
 1406SSM    C2A17181  10.509   4.121   6.378
 1406SSM    C3A17182  10.426   4.130   5.922
 1406SSM    C4A17183  10.372   4.014   5.407
 1406SSM    C1B17184  10.553   3.610   6.500
 1406SSM    C2B17185  10.447   3.586   5.963
 1406SSM    C3B17186  10.374   3.496   5.533
 1406SSM    C4B17187   9.949   3.297   5.601
 1407SSM    NC317188  10.187  35.668   7.090
 1407SSM    PO417189   9.845  35.819   7.252
 1407SSM    OH117190   9.699  35.861   6.944
 1407SSM    AM217191   9.866  35.683   6.782
 1407SSM    T1A17192   9.707  36.075   6.666
 1407SSM    C2A17193   9.800  36.200   6.308
 1407SSM    C3A17194   9.679  36.154   5.866
 1407SSM    C4A17195   9.390  36.086   5.471
 1407SSM    C1B17196   9.994  35.496   6.423
 1407SSM    C2B17197   9.983  35.298   5.981
 1407SSM    C3B17198   9.734  35.204   5.611
 1407SSM    C4B17199   9.587  35.138   5.163
 1408SSM    NC317200  17.943  32.762   7.411
 1408SSM    PO417201  18.243  32.827   7.672
 1408SSM    OH117202  18.515  32.912   7.449
 1408SSM    AM217203  18.374  32.806   7.182
 1408SSM    T1A17204  18.837  32.873   7.345
 1408SSM    C2A17205  19.036  33.008   7.030
 1408SSM    C3A17206  19.126  33.132   6.532
 1408SSM    C4A17207  19.220  33.275   6.078
 1408SSM    C1B17208  18.379  32.833   6.745
 1408SSM    C2B17209  18.356  32.963   6.251
 1408SSM    C3B17210  18.206  32.993   5.855
 1408SSM    C4B17211  18.209  33.041   5.373
 1409SSM    NC317212  34.528   0.210   7.068
 1409SSM    PO417213  34.123   0.289   7.079
 1409SSM    OH117214  34.066  -0.077   6.923
 1409SSM    AM217215  34.318  -0.044   6.757
 1409SSM    T1A17216  33.985  -0.313   6.710
 1409SSM    C2A17217  33.956  -0.329   6.359
 1409SSM    C3A17218  34.165  -0.373   5.961
 1409SSM    C4A17219  34.299  -0.618   5.506
 1409SSM    C1B17220  34.423   0.249   6.455
 1409SSM    C2B17221  34.426   0.415   5.937
 1409SSM    C3B17222  34.265   0.328   5.509
 1409SSM    C4B17223  33.977   0.397   5.110
 1410SSM    NC317224  28.979   1.375   7.548
 1410SSM    PO417225  28.585   1.247   7.568
 1410SSM    OH117226  28.477   1.294   7.196
 1410SSM    AM217227  28.658   1.064   7.138
 1410SSM    T1A17228  28.429   1.330   6.856
 1410SSM    C2A17229  28.531   1.258   6.470
 1410SSM    C3A17230  28.550   1.343   6.003
 1410SSM    C4A17231  28.736   1.385   5.548
 1410SSM    C1B17232  28.860   0.891   6.844
 1410SSM    C2B17233  28.870   0.921   6.322
 1410SSM    C3B17234  28.878   0.974   5.835
 1410SSM    C4B17235  29.164   1.074   5.455
 1411SSM    NC317236  31.487  30.817   7.841
 1411SSM    PO417237  31.895  30.942   7.818
 1411SSM    OH117238  31.928  31.038   7.445
 1411SSM    AM217239  32.128  30.818   7.408
 1411SSM    T1A17240  31.926  31.055   7.099
 1411SSM    C2A17241  32.037  30.881   6.790
 1411SSM    C3A17242  32.207  30.637   6.383
 1411SSM    C4A17243  32.357  30.549   5.902
 1411SSM    C1B17244  32.265  30.476   7.145
 1411SSM    C2B17245  32.514  30.423   6.663
 1411SSM    C3B17246  32.706  30.355   6.240
 1411SSM    C4B17247  32.938  30.284   5.814
 1412SSM    NC317248  18.073  34.790   7.891
 1412SSM    PO417249  18.406  34.919   7.801
 1412SSM    OH117250  18.627  34.993   7.505
 1412SSM    AM217251  18.411  34.824   7.385
 1412SSM    T1A17252  18.761  35.034   7.193
 1412SSM    C2A17253  18.756  35.026   6.767
 1412SSM    C3A17254  18.751  34.892   6.271
 1412SSM    C4A17255  18.914  34.625   5.893
 1412SSM    C1B17256  18.289  34.735   7.045
 1412SSM    C2B17257  18.324  34.623   6.541
 1412SSM    C3B17258  18.313  34.500   6.143
 1412SSM    C4B17259  18.153  34.878   5.780
 1413SSM    NC317260  26.894  23.643   7.292
 1413SSM    PO417261  27.076  23.316   7.431
 1413SSM    OH117262  27.212  23.045   7.213
 1413SSM    AM217263  27.422  23.222   7.053
 1413SSM    T1A17264  27.109  22.967   6.892
 1413SSM    C2A17265  27.096  22.940   6.548
 1413SSM    C3A17266  27.141  22.946   6.068
 1413SSM    C4A17267  27.326  22.886   5.606
 1413SSM    C1B17268  27.504  23.307   6.679
 1413SSM    C2B17269  27.503  23.231   6.157
 1413SSM    C3B17270  27.574  23.289   5.706
 1413SSM    C4B17271  27.910  23.343   5.329
 1414SSM    NC317272   3.027  27.334   7.927
 1414SSM    PO417273   3.110  27.018   7.695
 1414SSM    OH117274   3.112  26.907   7.361
 1414SSM    AM217275   3.030  26.612   7.397
 1414SSM    T1A17276   3.310  26.913   7.077
 1414SSM    C2A17277   3.340  27.162   6.760
 1414SSM    C3A17278   3.611  27.392   6.396
 1414SSM    C4A17279   3.758  27.273   5.926
 1414SSM    C1B17280   2.864  26.362   7.175
 1414SSM    C2B17281   2.981  26.174   6.690
 1414SSM    C3B17282   3.027  25.935   6.282
 1414SSM    C4B17283   2.746  25.760   5.893
 1415SSM    NC317284  16.619  13.338   7.497
 1415SSM    PO417285  16.626  12.964   7.327
 1415SSM    OH117286  16.404  13.012   7.028
 1415SSM    AM217287  16.478  12.746   6.904
 1415SSM    T1A17288  16.319  13.119   6.723
 1415SSM    C2A17289  16.495  13.273   6.414
 1415SSM    C3A17290  16.576  13.330   5.896
 1415SSM    C4A17291  16.315  13.417   5.504
 1415SSM    C1B17292  16.643  12.490   6.612
 1415SSM    C2B17293  16.663  12.399   6.059
 1415SSM    C3B17294  16.705  12.529   5.618
 1415SSM    C4B17295  16.966  12.453   5.193
 1416SSM    NC317296  25.532   9.439   8.093
 1416SSM    PO417297  25.304   9.524   7.785
 1416SSM    OH117298  25.327   9.337   7.443
 1416SSM    AM217299  25.135   9.526   7.318
 1416SSM    T1A17300  25.242   9.127   7.166
 1416SSM    C2A17301  25.180   9.193   6.740
 1416SSM    C3A17302  25.276   9.287   6.289
 1416SSM    C4A17303  25.126   9.295   5.875
 1416SSM    C1B17304  24.879   9.444   7.022
 1416SSM    C2B17305  24.938   9.684   6.576
 1416SSM    C3B17306  25.088   9.775   6.137
 1416SSM    C4B17307  25.383   9.695   5.732
 1417SSM    NC317308  26.264  16.041   7.547
 1417SSM    PO417309  26.476  15.775   7.717
 1417SSM    OH117310  26.560  15.533   7.461
 1417SSM    AM217311  26.381  15.671   7.259
 1417SSM    T1A17312  26.656  15.293   7.254
 1417SSM    C2A17313  26.565  15.350   6.888
 1417SSM    C3A17314  26.654  15.454   6.399
 1417SSM    C4A17315  26.754  15.479   5.885
 1417SSM    C1B17316  26.143  15.692   7.021
 1417SSM    C2B17317  26.060  15.724   6.535
 1417SSM    C3B17318  25.961  15.620   6.055
 1417SSM    C4B17319  26.094  15.512   5.536
 1418SSM    NC317320  16.984  34.152   7.246
 1418SSM    PO417321  16.579  34.056   7.289
 1418SSM    OH117322  16.423  33.948   6.952
 1418SSM    AM217323  16.675  33.849   6.834
 1418SSM    T1A17324  16.315  33.758   6.683
 1418SSM    C2A17325  16.217  33.764   6.275
 1418SSM    C3A17326  16.054  33.798   5.836
 1418SSM    C4A17327  15.812  33.643   5.370
 1418SSM    C1B17328  16.706  33.880   6.473
 1418SSM    C2B17329  16.614  33.710   5.936
 1418SSM    C3B17330  16.684  33.468   5.480
 1418SSM    C4B17331  16.954  33.481   5.076
 1419SSM    NC317332  19.580  29.501   7.756
 1419SSM    PO417333  19.611  29.425   7.373
 1419SSM    OH117334  19.645  29.711   7.170
 1419SSM    AM217335  19.898  29.598   7.021
 1419SSM    T1A17336  19.679  29.914   6.907
 1419SSM    C2A17337  19.721  29.909   6.552
 1419SSM    C3A17338  19.731  29.609   6.141
 1419SSM    C4A17339  19.593  29.440   5.688
 1419SSM    C1B17340  20.136  29.752   6.766
 1419SSM    C2B17341  20.273  29.788   6.290
 1419SSM    C3B17342  20.098  29.682   5.781
 1419SSM    C4B17343  20.074  29.201   5.576
 1420SSM    NC317344  24.286  26.430   7.666
 1420SSM    PO417345  23.982  26.253   7.481
 1420SSM    OH117346  24.096  26.362   7.117
 1420SSM    AM217347  23.914  26.112   7.012
 1420SSM    T1A17348  24.137  26.422   6.786
 1420SSM    C2A17349  23.946  26.656   6.512
 1420SSM    C3A17350  23.841  26.797   6.035
 1420SSM    C4A17351  23.771  26.986   5.555
 1420SSM    C1B17352  23.832  25.832   6.752
 1420SSM    C2B17353  23.842  25.781   6.254
 1420SSM    C3B17354  23.750  25.841   5.762
 1420SSM    C4B17355  23.836  25.842   5.331
 1421SSM    NC317356   8.377  18.340   7.924
 1421SSM    PO417357   8.401  18.074   7.638
 1421SSM    OH117358   8.320  17.910   7.304
 1421SSM    AM217359   8.197  18.163   7.186
 1421SSM    T1A17360   8.459  17.857   6.977
 1421SSM    C2A17361   8.591  17.895   6.606
 1421SSM    C3A17362   8.641  18.022   6.130
 1421SSM    C4A17363   8.726  17.899   5.702
 1421SSM    C1B17364   8.159  18.176   6.814
 1421SSM    C2B17365   8.143  18.062   6.348
 1421SSM    C3B17366   8.225  17.880   5.924
 1421SSM    C4B17367   8.276  17.821   5.483
 1422SSM    NC317368   8.872  29.097   7.572
 1422SSM    PO417369   8.896  29.058   7.192
 1422SSM    OH117370   8.844  28.952   6.845
 1422SSM    AM217371   8.808  29.252   6.774
 1422SSM    T1A17372   8.932  28.961   6.506
 1422SSM    C2A17373   8.751  29.017   6.154
 1422SSM    C3A17374   8.648  29.020   5.677
 1422SSM    C4A17375   8.780  28.836   5.197
 1422SSM    C1B17376   8.901  29.411   6.441
 1422SSM    C2B17377   8.871  29.748   6.010
 1422SSM    C3B17378   8.819  29.780   5.491
 1422SSM    C4B17379   8.574  29.784   5.026
 1423SSM    NC317380  27.986  16.340   7.958
 1423SSM    PO417381  28.250  16.323   7.755
 1423SSM    OH117382  28.226  16.270   7.392
 1423SSM    AM217383  28.317  15.993   7.420
 1423SSM    T1A17384  28.122  16.197   7.092
 1423SSM    C2A17385  28.034  16.104   6.717
 1423SSM    C3A17386  27.928  15.964   6.265
 1423SSM    C4A17387  27.689  15.873   5.828
 1423SSM    C1B17388  28.143  15.724   7.204
 1423SSM    C2B17389  28.209  15.638   6.733
 1423SSM    C3B17390  28.205  15.598   6.228
 1423SSM    C4B17391  28.065  15.524   5.819
 1424SSM    NC317392  12.125  30.685   7.995
 1424SSM    PO417393  12.102  31.025   8.047
 1424SSM    OH117394  12.290  31.223   7.742
 1424SSM    AM217395  12.204  30.982   7.587
 1424SSM    T1A17396  12.307  31.405   7.457
 1424SSM    C2A17397  12.385  31.662   7.160
 1424SSM    C3A17398  12.550  32.083   7.003
 1424SSM    C4A17399  12.827  32.377   6.744
 1424SSM    C1B17400  12.003  30.991   7.326
 1424SSM    C2B17401  12.028  31.151   6.791
 1424SSM    C3B17402  12.072  31.235   6.346
 1424SSM    C4B17403  12.240  31.374   5.959
 1425SSM    NC317404   2.570  27.722   7.226
 1425SSM    PO417405   2.298  27.972   6.989
 1425SSM    OH117406   2.375  27.978   6.603
 1425SSM    AM217407   2.579  27.760   6.636
 1425SSM    T1A17408   2.520  28.132   6.354
 1425SSM    C2A17409   2.558  28.404   6.081
 1425SSM    C3A17410   2.356  28.581   5.669
 1425SSM    C4A17411   2.067  28.855   5.373
 1425SSM    C1B17412   2.868  27.644   6.367
 1425SSM    C2B17413   2.899  27.755   5.832
 1425SSM    C3B17414   3.204  27.876   5.488
 1425SSM    C4B17415   3.452  28.130   5.170
 1426SSM    NC317416  15.480  32.160   7.361
 1426SSM    PO417417  15.614  32.537   7.340
 1426SSM    OH117418  15.550  32.774   7.022
 1426SSM    AM217419  15.420  32.521   6.897
 1426SSM    T1A17420  15.483  32.916   6.718
 1426SSM    C2A17421  15.459  32.960   6.347
 1426SSM    C3A17422  15.399  33.065   5.914
 1426SSM    C4A17423  15.320  33.270   5.453
 1426SSM    C1B17424  15.320  32.492   6.473
 1426SSM    C2B17425  15.338  32.568   5.968
 1426SSM    C3B17426  15.356  32.718   5.513
 1426SSM    C4B17427  15.189  32.896   5.102
 1427SSM    NC317428  16.138  24.760   7.657
 1427SSM    PO417429  16.095  25.152   7.609
 1427SSM    OH117430  15.973  25.298   7.257
 1427SSM    AM217431  15.870  25.034   7.123
 1427SSM    T1A17432  16.102  25.378   6.973
 1427SSM    C2A17433  16.029  25.352   6.573
 1427SSM    C3A17434  16.048  25.199   6.144
 1427SSM    C4A17435  16.067  25.215   5.721
 1427SSM    C1B17436  15.864  24.842   6.763
 1427SSM    C2B17437  15.815  24.714   6.264
 1427SSM    C3B17438  15.887  24.429   5.965
 1427SSM    C4B17439  15.965  24.421   5.498
 1428SSM    NC317440  16.688  27.822   8.131
 1428SSM    PO417441  16.727  27.536   7.827
 1428SSM    OH117442  16.605  27.524   7.499
 1428SSM    AM217443  16.751  27.264   7.415
 1428SSM    T1A17444  16.577  27.618   7.170
 1428SSM    C2A17445  16.540  27.513   6.773
 1428SSM    C3A17446  16.501  27.423   6.353
 1428SSM    C4A17447  16.470  27.489   5.968
 1428SSM    C1B17448  16.854  27.147   7.077
 1428SSM    C2B17449  16.886  27.113   6.635
 1428SSM    C3B17450  16.909  26.989   6.168
 1428SSM    C4B17451  16.966  26.880   5.710
 1429SSM    NC317452  19.237  18.110   8.175
 1429SSM    PO417453  19.275  18.352   7.927
 1429SSM    OH117454  18.994  18.271   7.640
 1429SSM    AM217455  19.229  18.257   7.475
 1429SSM    T1A17456  18.823  18.145   7.362
 1429SSM    C2A17457  18.823  18.223   6.957
 1429SSM    C3A17458  18.621  18.294   6.555
 1429SSM    C4A17459  18.625  18.264   6.082
 1429SSM    C1B17460  19.343  18.110   7.125
 1429SSM    C2B17461  19.283  18.244   6.621
 1429SSM    C3B17462  19.055  18.438   6.181
 1429SSM    C4B17463  19.105  18.136   5.767
 1430SSM    NC317464  23.691   0.832   7.846
 1430SSM    PO417465  23.463   0.970   7.560
 1430SSM    OH117466  23.347   0.918   7.153
 1430SSM    AM217467  23.631   0.763   7.135
 1430SSM    T1A17468  23.329   0.740   6.866
 1430SSM    C2A17469  23.324   0.599   6.467
 1430SSM    C3A17470  23.322   0.603   5.961
 1430SSM    C4A17471  23.282   0.565   5.499
 1430SSM    C1B17472  23.834   0.656   6.783
 1430SSM    C2B17473  24.127   0.720   6.342
 1430SSM    C3B17474  24.289   0.809   5.903
 1430SSM    C4B17475  23.836   0.769   5.635
 1431SSM    NC317476  12.036   2.195   7.677
 1431SSM    PO417477  12.304   2.115   7.389
 1431SSM    OH117478  12.251   2.364   7.106
 1431SSM    AM217479  12.357   2.108   6.924
 1431SSM    T1A17480  12.193   2.475   6.769
 1431SSM    C2A17481  12.310   2.486   6.405
 1431SSM    C3A17482  12.196   2.456   5.965
 1431SSM    C4A17483  12.280   2.668   5.536
 1431SSM    C1B17484  12.403   1.829   6.657
 1431SSM    C2B17485  12.613   1.516   6.256
 1431SSM    C3B17486  12.694   1.079   5.997
 1431SSM    C4B17487  12.798   0.855   5.551
 1432SSM    NC317488   6.559  26.321   7.520
 1432SSM    PO417489   6.524  26.217   7.125
 1432SSM    OH117490   6.692  26.572   7.052
 1432SSM    AM217491   6.482  26.565   6.810
 1432SSM    T1A17492   6.828  26.859   6.880
 1432SSM    C2A17493   6.801  27.145   6.671
 1432SSM    C3A17494   6.453  27.295   6.328
 1432SSM    C4A17495   6.292  27.460   5.935
 1432SSM    C1B17496   6.276  26.883   6.534
 1432SSM    C2B17497   6.190  26.911   6.073
 1432SSM    C3B17498   6.047  27.081   5.638
 1432SSM    C4B17499   5.815  27.097   5.176
 1433SSM    NC317500  12.199   7.273   7.932
 1433SSM    PO417501  12.000   7.570   7.752
 1433SSM    OH117502  11.835   7.506   7.432
 1433SSM    AM217503  12.072   7.705   7.300
 1433SSM    T1A17504  11.688   7.518   7.134
 1433SSM    C2A17505  11.702   7.542   6.701
 1433SSM    C3A17506  11.708   7.587   6.223
 1433SSM    C4A17507  11.706   7.425   5.745
 1433SSM    C1B17508  12.115   7.739   6.954
 1433SSM    C2B17509  12.186   7.790   6.440
 1433SSM    C3B17510  12.185   7.805   5.985
 1433SSM    C4B17511  12.297   7.790   5.509
 1434SSM    NC317512  30.404  14.284   8.136
 1434SSM    PO417513  30.214  14.158   7.765
 1434SSM    OH117514  30.114  14.219   7.441
 1434SSM    AM217515  30.369  14.207   7.281
 1434SSM    T1A17516  29.976  14.173   7.141
 1434SSM    C2A17517  29.970  13.958   6.778
 1434SSM    C3A17518  30.051  13.977   6.234
 1434SSM    C4A17519  30.452  13.981   5.868
 1434SSM    C1B17520  30.554  13.948   7.027
 1434SSM    C2B17521  30.842  13.836   6.581
 1434SSM    C3B17522  31.009  13.883   6.132
 1434SSM    C4B17523  31.029  13.968   5.691
 1435SSM    NC317524  18.086   3.194   7.844
 1435SSM    PO417525  18.421   2.963   7.827
 1435SSM    OH117526  18.479   2.981   7.471
 1435SSM    AM217527  18.250   3.155   7.405
 1435SSM    T1A17528  18.341   2.809   7.216
 1435SSM    C2A17529  18.269   2.615   6.855
 1435SSM    C3A17530  18.315   2.280   6.503
 1435SSM    C4A17531  18.366   2.235   6.045
 1435SSM    C1B17532  18.145   3.506   7.154
 1435SSM    C2B17533  17.827   3.421   6.727
 1435SSM    C3B17534  17.666   3.411   6.295
 1435SSM    C4B17535  17.359   3.370   5.919
 1436SSM    NC317536  30.422  12.730   7.722
 1436SSM    PO417537  30.116  12.598   7.937
 1436SSM    OH117538  30.049  12.364   7.602
 1436SSM    AM217539  30.061  12.626   7.439
 1436SSM    T1A17540  29.964  12.198   7.330
 1436SSM    C2A17541  29.788  11.933   7.083
 1436SSM    C3A17542  29.529  11.725   6.663
 1436SSM    C4A17543  29.468  11.654   6.173
 1436SSM    C1B17544  29.958  12.756   7.034
 1436SSM    C2B17545  29.936  12.890   6.540
 1436SSM    C3B17546  30.224  13.088   6.228
 1436SSM    C4B17547  30.458  13.063   5.859
 1437SSM    NC317548  35.740  22.683   7.673
 1437SSM    PO417549  35.903  22.500   7.988
 1437SSM    OH117550  36.072  22.230   7.785
 1437SSM    AM217551  35.819  22.233   7.608
 1437SSM    T1A17552  36.214  22.057   7.523
 1437SSM    C2A17553  36.483  21.786   7.272
 1437SSM    C3A17554  36.530  21.634   6.800
 1437SSM    C4A17555  36.663  21.562   6.313
 1437SSM    C1B17556  35.738  22.277   7.232
 1437SSM    C2B17557  35.902  22.331   6.738
 1437SSM    C3B17558  35.974  22.262   6.261
 1437SSM    C4B17559  36.080  22.173   5.794
 1438SSM    NC317560  29.184  33.887   6.870
 1438SSM    PO417561  29.056  33.551   7.043
 1438SSM    OH117562  28.850  33.402   6.763
 1438SSM    AM217563  29.104  33.329   6.597
 1438SSM    T1A17564  28.723  33.490   6.459
 1438SSM    C2A17565  28.621  33.656   6.068
 1438SSM    C3A17566  28.642  33.745   5.551
 1438SSM    C4A17567  28.533  34.060   5.146
 1438SSM    C1B17568  29.255  33.217   6.315
 1438SSM    C2B17569  29.243  33.086   5.805
 1438SSM    C3B17570  29.209  32.982   5.335
 1438SSM    C4B17571  29.216  33.288   4.859
 1439SSM    NC317572   3.156   2.692   7.622
 1439SSM    PO417573   2.809   2.592   7.442
 1439SSM    OH117574   2.741   2.766   7.130
 1439SSM    AM217575   3.026   2.784   7.042
 1439SSM    T1A17576   2.681   2.765   6.789
 1439SSM    C2A17577   2.666   2.709   6.388
 1439SSM    C3A17578   2.639   2.747   5.904
 1439SSM    C4A17579   2.571   2.770   5.442
 1439SSM    C1B17580   3.201   2.810   6.701
 1439SSM    C2B17581   3.141   2.742   6.184
 1439SSM    C3B17582   3.159   2.790   5.748
 1439SSM    C4B17583   3.042   2.911   5.291
 1440SSM    NC317584  25.650  14.813   8.337
 1440SSM    PO417585  25.598  14.432   8.109
 1440SSM    OH117586  25.559  14.223   7.782
 1440SSM    AM217587  25.425  14.443   7.632
 1440SSM    T1A17588  25.564  14.111   7.462
 1440SSM    C2A17589  25.670  14.102   7.126
 1440SSM    C3A17590  25.770  14.067   6.659
 1440SSM    C4A17591  25.837  13.945   6.215
 1440SSM    C1B17592  25.346  14.554   7.267
 1440SSM    C2B17593  25.456  14.472   6.784
 1440SSM    C3B17594  25.670  14.471   6.335
 1440SSM    C4B17595  25.828  14.570   5.870
 1441SSM    NC317596  23.080   3.270   7.579
 1441SSM    PO417597  22.761   3.460   7.680
 1441SSM    OH117598  22.628   3.610   7.373
 1441SSM    AM217599  22.873   3.582   7.209
 1441SSM    T1A17600  22.504   3.619   7.040
 1441SSM    C2A17601  22.412   3.637   6.630
 1441SSM    C3A17602  22.584   3.876   6.257
 1441SSM    C4A17603  22.657   4.053   5.785
 1441SSM    C1B17604  22.914   3.557   6.815
 1441SSM    C2B17605  22.845   3.491   6.302
 1441SSM    C3B17606  22.735   3.557   5.814
 1441SSM    C4B17607  22.684   3.712   5.371
 1442SSM    NC317608  27.771   5.792   7.752
 1442SSM    PO417609  27.368   5.642   7.699
 1442SSM    OH117610  27.114   5.814   7.462
 1442SSM    AM217611  27.320   5.970   7.347
 1442SSM    T1A17612  27.008   5.776   7.132
 1442SSM    C2A17613  26.834   5.775   6.798
 1442SSM    C3A17614  26.719   5.989   6.331
 1442SSM    C4A17615  26.552   6.196   5.926
 1442SSM    C1B17616  27.374   6.084   6.924
 1442SSM    C2B17617  27.188   6.045   6.454
 1442SSM    C3B17618  27.043   6.048   5.952
 1442SSM    C4B17619  26.791   6.212   5.495
 1443SSM    NC317620  12.848  17.764   7.757
 1443SSM    PO417621  12.721  18.092   7.550
 1443SSM    OH117622  12.469  17.944   7.298
 1443SSM    AM217623  12.689  17.851   7.116
 1443SSM    T1A17624  12.278  17.715   7.123
 1443SSM    C2A17625  12.363  17.572   6.772
 1443SSM    C3A17626  12.419  17.570   6.300
 1443SSM    C4A17627  12.418  17.505   5.810
 1443SSM    C1B17628  12.736  17.855   6.765
 1443SSM    C2B17629  12.867  17.913   6.326
 1443SSM    C3B17630  12.940  17.856   5.845
 1443SSM    C4B17631  13.328  17.624   5.651
 1444SSM    NC317632  13.329  28.651   8.056
 1444SSM    PO417633  13.406  28.750   7.693
 1444SSM    OH117634  13.371  28.685   7.345
 1444SSM    AM217635  13.056  28.727   7.355
 1444SSM    T1A17636  13.350  28.538   7.024
 1444SSM    C2A17637  13.301  28.281   6.750
 1444SSM    C3A17638  13.166  28.172   6.304
 1444SSM    C4A17639  13.072  28.271   5.803
 1444SSM    C1B17640  12.906  28.741   6.967
 1444SSM    C2B17641  12.741  28.845   6.472
 1444SSM    C3B17642  12.915  28.847   6.009
 1444SSM    C4B17643  13.108  28.836   5.522
 1445SSM    NC317644  22.904   6.830   7.475
 1445SSM    PO417645  23.300   6.708   7.431
 1445SSM    OH117646  23.568   6.689   7.138
 1445SSM    AM217647  23.331   6.705   6.937
 1445SSM    T1A17648  23.778   6.811   6.893
 1445SSM    C2A17649  23.664   6.880   6.536
 1445SSM    C3A17650  23.839   6.857   6.091
 1445SSM    C4A17651  23.928   7.094   5.670
 1445SSM    C1B17652  23.248   6.632   6.564
 1445SSM    C2B17653  23.345   6.793   6.118
 1445SSM    C3B17654  23.332   7.202   5.870
 1445SSM    C4B17655  23.223   7.650   5.746
 1446SSM    NC317656  21.028  32.858   7.982
 1446SSM    PO417657  21.062  32.813   7.574
 1446SSM    OH117658  20.855  32.887   7.238
 1446SSM    AM217659  20.628  32.758   7.365
 1446SSM    T1A17660  20.686  32.862   6.966
 1446SSM    C2A17661  20.364  32.795   6.701
 1446SSM    C3A17662  20.068  32.638   6.345
 1446SSM    C4A17663  19.848  32.490   5.922
 1446SSM    C1B17664  20.273  32.613   7.170
 1446SSM    C2B17665  20.024  32.190   7.067
 1446SSM    C3B17666  19.879  31.771   6.793
 1446SSM    C4B17667  19.754  31.326   6.607
 1447SSM    NC317668  25.380  17.512   7.771
 1447SSM    PO417669  25.031  17.410   7.877
 1447SSM    OH117670  25.005  17.144   7.639
 1447SSM    AM217671  25.123  17.315   7.388
 1447SSM    T1A17672  24.817  16.995   7.395
 1447SSM    C2A17673  24.870  16.956   6.996
 1447SSM    C3A17674  24.962  16.956   6.522
 1447SSM    C4A17675  24.786  16.797   6.092
 1447SSM    C1B17676  25.027  17.387   7.089
 1447SSM    C2B17677  25.114  17.533   6.605
 1447SSM    C3B17678  25.227  17.631   6.208
 1447SSM    C4B17679  25.402  17.736   5.821
 1448SSM    NC317680  19.559   9.328   7.490
 1448SSM    PO417681  19.289   9.458   7.709
 1448SSM    OH117682  18.960   9.445   7.591
 1448SSM    AM217683  18.998   9.431   7.305
 1448SSM    T1A17684  18.637   9.511   7.597
 1448SSM    C2A17685  18.466   9.452   7.224
 1448SSM    C3A17686  18.342   9.734   6.805
 1448SSM    C4A17687  18.063   9.805   6.339
 1448SSM    C1B17688  18.972   9.266   6.959
 1448SSM    C2B17689  18.571   9.281   6.580
 1448SSM    C3B17690  18.316   9.382   6.198
 1448SSM    C4B17691  18.068   9.616   5.887
 1449SSM    NC317692  14.905  16.643   7.876
 1449SSM    PO417693  15.261  16.814   7.918
 1449SSM    OH117694  15.521  16.686   7.713
 1449SSM    AM217695  15.439  16.859   7.463
 1449SSM    T1A17696  15.766  16.638   7.512
 1449SSM    C2A17697  15.881  16.554   7.160
 1449SSM    C3A17698  15.803  16.615   6.720
 1449SSM    C4A17699  15.873  16.928   6.353
 1449SSM    C1B17700  15.414  16.838   7.049
 1449SSM    C2B17701  15.282  16.813   6.561
 1449SSM    C3B17702  15.428  16.911   6.120
 1449SSM    C4B17703  15.861  16.970   5.822
 1450SSM    NC317704  26.721   6.037   8.134
 1450SSM    PO417705  26.792   6.023   7.753
 1450SSM    OH117706  26.870   6.234   7.468
 1450SSM    AM217707  26.603   6.138   7.341
 1450SSM    T1A17708  26.991   6.329   7.142
 1450SSM    C2A17709  26.920   6.292   6.776
 1450SSM    C3A17710  26.917   6.441   6.244
 1450SSM    C4A17711  27.078   6.531   5.777
 1450SSM    C1B17712  26.470   6.165   6.994
 1450SSM    C2B17713  26.423   6.414   6.542
 1450SSM    C3B17714  26.231   6.638   6.205
 1450SSM    C4B17715  26.076   6.884   5.819
 1451SSM    NC317716   6.807  29.714   6.981
 1451SSM    PO417717   7.195  29.751   7.159
 1451SSM    OH117718   7.210  29.929   6.807
 1451SSM    AM217719   7.154  29.662   6.707
 1451SSM    T1A17720   7.028  30.014   6.541
 1451SSM    C2A17721   7.000  30.053   6.130
 1451SSM    C3A17722   7.023  30.084   5.612
 1451SSM    C4A17723   7.046  30.000   5.151
 1451SSM    C1B17724   7.272  29.523   6.369
 1451SSM    C2B17725   7.165  29.587   5.865
 1451SSM    C3B17726   7.368  29.714   5.456
 1451SSM    C4B17727   7.641  29.671   5.122
 1452SSM    NC317728  25.874  25.093   7.444
 1452SSM    PO417729  25.582  25.386   7.511
 1452SSM    OH117730  25.545  25.682   7.283
 1452SSM    AM217731  25.620  25.503   7.058
 1452SSM    T1A17732  25.726  25.890   7.069
 1452SSM    C2A17733  25.673  25.767   6.665
 1452SSM    C3A17734  25.605  25.673   6.231
 1452SSM    C4A17735  25.624  25.691   5.729
 1452SSM    C1B17736  25.559  25.317   6.680
 1452SSM    C2B17737  25.482  25.201   6.183
 1452SSM    C3B17738  25.538  25.146   5.706
 1452SSM    C4B17739  25.582  25.279   5.223
 1453SSM    NC317740  22.352  17.457   7.895
 1453SSM    PO417741  22.368  17.066   7.873
 1453SSM    OH117742  22.385  16.946   7.558
 1453SSM    AM217743  22.687  16.927   7.522
 1453SSM    T1A17744  22.376  16.902   7.224
 1453SSM    C2A17745  22.261  17.012   6.878
 1453SSM    C3A17746  22.205  17.330   6.571
 1453SSM    C4A17747  22.155  17.810   6.477
 1453SSM    C1B17748  22.948  17.132   7.228
 1453SSM    C2B17749  23.084  17.363   6.725
 1453SSM    C3B17750  23.071  17.540   6.218
 1453SSM    C4B17751  23.173  17.742   5.806
 1454SSM    NC317752  25.715  30.018   7.161
 1454SSM    PO417753  26.058  30.133   7.004
 1454SSM    OH117754  26.153  30.064   6.685
 1454SSM    AM217755  26.282  30.293   6.582
 1454SSM    T1A17756  25.997  30.037   6.383
 1454SSM    C2A17757  25.643  30.050   6.178
 1454SSM    C3A17758  25.664  30.128   5.698
 1454SSM    C4A17759  25.698  30.040   5.171
 1454SSM    C1B17760  26.409  30.473   6.327
 1454SSM    C2B17761  26.258  30.753   5.920
 1454SSM    C3B17762  26.273  31.053   5.523
 1454SSM    C4B17763  26.331  31.421   5.286
 1455SSM    NC317764  17.477  33.821   7.800
 1455SSM    PO417765  17.426  34.037   7.474
 1455SSM    OH117766  17.461  34.060   7.103
 1455SSM    AM217767  17.302  33.831   7.016
 1455SSM    T1A17768  17.575  34.030   6.786
 1455SSM    C2A17769  17.605  33.923   6.399
 1455SSM    C3A17770  17.585  33.894   5.889
 1455SSM    C4A17771  17.596  33.828   5.463
 1455SSM    C1B17772  17.160  33.728   6.670
 1455SSM    C2B17773  17.072  33.738   6.194
 1455SSM    C3B17774  17.102  33.720   5.685
 1455SSM    C4B17775  16.877  33.953   5.347
 1456SSM    NC317776   9.744  10.627   7.098
 1456SSM    PO417777   9.533  10.315   7.257
 1456SSM    OH117778   9.451  10.002   6.985
 1456SSM    AM217779   9.168  10.148   7.006
 1456SSM    T1A17780   9.467  10.030   6.638
 1456SSM    C2A17781   9.543   9.947   6.199
 1456SSM    C3A17782   9.430  10.200   5.811
 1456SSM    C4A17783   9.380  10.327   5.347
 1456SSM    C1B17784   8.791  10.227   6.871
 1456SSM    C2B17785   8.536  10.463   6.510
 1456SSM    C3B17786   8.374  10.524   6.056
 1456SSM    C4B17787   8.222  10.862   5.713
 1457SSM    NC317788  20.505   4.135   7.260
 1457SSM    PO417789  20.195   4.401   7.232
 1457SSM    OH117790  20.164   4.165   6.981
 1457SSM    AM217791  19.872   4.214   6.922
 1457SSM    T1A17792  20.201   4.112   6.637
 1457SSM    C2A17793  20.132   4.141   6.214
 1457SSM    C3A17794  20.360   4.267   5.809
 1457SSM    C4A17795  20.530   4.498   5.440
 1457SSM    C1B17796  19.589   4.226   6.639
 1457SSM    C2B17797  19.263   4.361   6.344
 1457SSM    C3B17798  19.060   4.143   5.927
 1457SSM    C4B17799  19.157   3.688   5.696
 1458SSM    NC317800  16.301   9.158   7.938
 1458SSM    PO417801  16.124   8.879   7.745
 1458SSM    OH117802  16.315   8.870   7.448
 1458SSM    AM217803  16.339   8.578   7.443
 1458SSM    T1A17804  16.460   8.877   7.129
 1458SSM    C2A17805  16.378   8.658   6.797
 1458SSM    C3A17806  16.311   8.665   6.288
 1458SSM    C4A17807  16.312   8.502   5.858
 1458SSM    C1B17808  16.244   8.300   7.159
 1458SSM    C2B17809  16.169   7.917   6.861
 1458SSM    C3B17810  15.917   7.830   6.468
 1458SSM    C4B17811  15.574   7.777   6.133
 1459SSM    NC317812   3.038   5.906   8.063
 1459SSM    PO417813   3.291   5.636   7.840
 1459SSM    OH117814   3.344   5.686   7.421
 1459SSM    AM217815   3.095   5.517   7.401
 1459SSM    T1A17816   3.371   5.719   7.092
 1459SSM    C2A17817   3.261   5.587   6.740
 1459SSM    C3A17818   3.126   5.523   6.320
 1459SSM    C4A17819   2.992   5.476   5.853
 1459SSM    C1B17820   3.105   5.281   7.093
 1459SSM    C2B17821   2.962   5.119   6.637
 1459SSM    C3B17822   2.807   5.085   6.198
 1459SSM    C4B17823   2.803   4.907   5.773
 1460SSM    NC317824  27.688  23.830   7.867
 1460SSM    PO417825  27.744  24.063   7.539
 1460SSM    OH117826  27.464  23.820   7.358
 1460SSM    AM217827  27.674  23.717   7.195
 1460SSM    T1A17828  27.266  23.666   7.082
 1460SSM    C2A17829  27.014  23.546   6.800
 1460SSM    C3A17830  27.042  23.403   6.321
 1460SSM    C4A17831  27.137  23.364   5.843
 1460SSM    C1B17832  27.815  23.650   6.821
 1460SSM    C2B17833  27.772  23.592   6.339
 1460SSM    C3B17834  27.931  23.609   5.874
 1460SSM    C4B17835  28.087  23.779   5.471
 1461SSM    NC317836  27.547   1.839   7.883
 1461SSM    PO417837  27.715   1.492   7.844
 1461SSM    OH117838  27.705   1.417   7.529
 1461SSM    AM217839  27.439   1.508   7.439
 1461SSM    T1A17840  27.770   1.537   7.212
 1461SSM    C2A17841  27.721   1.656   6.845
 1461SSM    C3A17842  27.693   1.758   6.376
 1461SSM    C4A17843  27.896   1.845   5.956
 1461SSM    C1B17844  27.277   1.710   7.079
 1461SSM    C2B17845  27.211   2.002   6.670
 1461SSM    C3B17846  26.933   2.157   6.248
 1461SSM    C4B17847  26.801   2.278   5.767
 1462SSM    NC317848   2.095   2.569   7.264
 1462SSM    PO417849   1.855   2.809   7.449
 1462SSM    OH117850   1.802   2.962   7.119
 1462SSM    AM217851   1.730   2.697   6.981
 1462SSM    T1A17852   1.773   3.030   6.776
 1462SSM    C2A17853   1.737   3.076   6.369
 1462SSM    C3A17854   1.675   3.203   5.885
 1462SSM    C4A17855   1.484   3.320   5.486
 1462SSM    C1B17856   1.813   2.608   6.608
 1462SSM    C2B17857   1.767   2.675   6.102
 1462SSM    C3B17858   1.820   2.809   5.657
 1462SSM    C4B17859   1.739   2.946   5.212
 1463SSM    NC317860  29.769  19.386   7.960
 1463SSM    PO417861  29.935  19.176   7.663
 1463SSM    OH117862  29.874  19.201   7.301
 1463SSM    AM217863  30.179  19.163   7.243
 1463SSM    T1A17864  29.900  19.387   7.007
 1463SSM    C2A17865  29.958  19.341   6.621
 1463SSM    C3A17866  30.038  18.895   6.467
 1463SSM    C4A17867  30.062  18.658   6.000
 1463SSM    C1B17868  30.367  18.996   6.930
 1463SSM    C2B17869  30.644  18.663   6.620
 1463SSM    C3B17870  30.547  18.673   6.160
 1463SSM    C4B17871  30.495  18.666   5.699
 1464SSM    NC317872   2.910  31.715   7.839
 1464SSM    PO417873   2.502  31.698   7.957
 1464SSM    OH117874   2.415  31.629   7.596
 1464SSM    AM217875   2.641  31.476   7.514
 1464SSM    T1A17876   2.309  31.577   7.277
 1464SSM    C2A17877   2.262  31.438   6.891
 1464SSM    C3A17878   2.119  31.225   6.465
 1464SSM    C4A17879   1.983  31.318   6.031
 1464SSM    C1B17880   2.774  31.470   7.200
 1464SSM    C2B17881   2.755  31.551   6.758
 1464SSM    C3B17882   2.606  31.418   6.249
 1464SSM    C4B17883   2.656  31.431   5.765
 1465SSM    NC317884   3.814   6.270   7.005
 1465SSM    PO417885   3.543   6.202   7.299
 1465SSM    OH117886   3.230   6.156   7.077
 1465SSM    AM217887   3.389   6.094   6.842
 1465SSM    T1A17888   3.019   5.914   6.967
 1465SSM    C2A17889   2.785   5.670   6.760
 1465SSM    C3A17890   2.588   5.506   6.349
 1465SSM    C4A17891   2.528   5.595   5.850
 1465SSM    C1B17892   3.669   5.882   6.620
 1465SSM    C2B17893   3.792   5.764   6.126
 1465SSM    C3B17894   3.998   5.748   5.671
 1465SSM    C4B17895   4.181   5.937   5.313
 1466SSM    NC317896  27.045   3.211   7.923
 1466SSM    PO417897  27.418   3.265   7.758
 1466SSM    OH117898  27.217   3.241   7.455
 1466SSM    AM217899  27.402   3.467   7.337
 1466SSM    T1A17900  27.071   3.335   7.153
 1466SSM    C2A17901  26.955   3.490   6.810
 1466SSM    C3A17902  27.033   3.649   6.379
 1466SSM    C4A17903  27.224   3.808   5.950
 1466SSM    C1B17904  27.769   3.622   7.224
 1466SSM    C2B17905  27.826   3.730   6.725
 1466SSM    C3B17906  27.642   3.502   6.279
 1466SSM    C4B17907  27.607   3.346   5.831
 1467SSM    NC317908  35.941  13.256   7.727
 1467SSM    PO417909  36.112  13.534   7.944
 1467SSM    OH117910  36.415  13.480   7.709
 1467SSM    AM217911  36.237  13.501   7.464
 1467SSM    T1A17912  36.691  13.654   7.529
 1467SSM    C2A17913  36.900  13.725   7.260
 1467SSM    C3A17914  37.059  13.564   6.827
 1467SSM    C4A17915  37.315  13.492   6.382
 1467SSM    C1B17916  36.127  13.564   7.101
 1467SSM    C2B17917  36.152  13.622   6.627
 1467SSM    C3B17918  36.053  13.727   6.164
 1467SSM    C4B17919  36.078  14.080   5.795
 1468SSM    NC317920  29.905   5.397   7.947
 1468SSM    PO417921  30.096   5.475   7.632
 1468SSM    OH117922  30.187   5.454   7.264
 1468SSM    AM217923  29.906   5.429   7.206
 1468SSM    T1A17924  30.184   5.465   6.919
 1468SSM    C2A17925  30.157   5.426   6.554
 1468SSM    C3A17926  30.225   5.417   6.089
 1468SSM    C4A17927  30.137   5.321   5.523
 1468SSM    C1B17928  29.746   5.512   6.897
 1468SSM    C2B17929  29.676   5.550   6.402
 1468SSM    C3B17930  29.753   5.508   5.878
 1468SSM    C4B17931  29.491   5.531   5.492
 1469SSM    NC317932  29.443   1.374   8.335
 1469SSM    PO417933  29.354   1.221   7.957
 1469SSM    OH117934  29.453   1.406   7.636
 1469SSM    AM217935  29.378   1.162   7.491
 1469SSM    T1A17936  29.599   1.473   7.342
 1469SSM    C2A17937  29.663   1.463   6.958
 1469SSM    C3A17938  29.737   1.531   6.516
 1469SSM    C4A17939  29.656   1.630   6.031
 1469SSM    C1B17940  29.328   1.078   7.115
 1469SSM    C2B17941  29.280   1.009   6.634
 1469SSM    C3B17942  29.341   1.010   6.171
 1469SSM    C4B17943  29.602   1.122   5.789
 1470SSM    NC317944  28.466  35.507   7.739
 1470SSM    PO417945  28.825  35.473   7.652
 1470SSM    OH117946  28.854  35.590   7.322
 1470SSM    AM217947  29.056  35.375   7.255
 1470SSM    T1A17948  28.702  35.547   7.041
 1470SSM    C2A17949  28.659  35.728   6.711
 1470SSM    C3A17950  28.569  35.552   6.219
 1470SSM    C4A17951  28.221  35.404   5.920
 1470SSM    C1B17952  29.046  35.082   6.966
 1470SSM    C2B17953  28.707  35.215   6.589
 1470SSM    C3B17954  28.272  35.361   6.686
 1470SSM    C4B17955  27.845  35.525   6.505
 1471SSM    NC317956  21.207  34.725   7.825
 1471SSM    PO417957  21.224  35.118   7.885
 1471SSM    OH117958  21.247  35.219   7.528
 1471SSM    AM217959  21.027  35.038   7.474
 1471SSM    T1A17960  21.280  35.302   7.205
 1471SSM    C2A17961  21.129  35.388   6.781
 1471SSM    C3A17962  21.047  35.398   6.349
 1471SSM    C4A17963  20.947  35.243   5.919
 1471SSM    C1B17964  20.802  35.057   7.075
 1471SSM    C2B17965  20.740  35.091   6.580
 1471SSM    C3B17966  20.634  34.983   6.169
 1471SSM    C4B17967  20.272  34.732   5.899
 1472SSM    NC317968  16.416  35.079   7.352
 1472SSM    PO417969  16.737  35.021   7.594
 1472SSM    OH117970  16.975  35.090   7.308
 1472SSM    AM217971  17.079  34.809   7.242
 1472SSM    T1A17972  16.863  35.093   6.981
 1472SSM    C2A17973  16.637  34.916   6.685
 1472SSM    C3A17974  16.568  34.784   6.253
 1472SSM    C4A17975  16.441  34.698   5.766
 1472SSM    C1B17976  16.978  34.622   6.939
 1472SSM    C2B17977  16.680  34.417   6.591
 1472SSM    C3B17978  16.653  34.301   6.102
 1472SSM    C4B17979  16.613  34.201   5.669
 1473SSM    NC317980  22.032  18.211   8.157
 1473SSM    PO417981  22.354  17.940   8.197
 1473SSM    OH117982  22.356  17.886   7.824
 1473SSM    AM217983  22.618  18.008   7.752
 1473SSM    T1A17984  22.307  17.837   7.480
 1473SSM    C2A17985  22.406  17.700   7.113
 1473SSM    C3A17986  22.621  17.363   6.856
 1473SSM    C4A17987  22.661  17.187   6.403
 1473SSM    C1B17988  22.846  17.915   7.460
 1473SSM    C2B17989  22.855  17.897   6.970
 1473SSM    C3B17990  22.713  17.683   6.551
 1473SSM    C4B17991  22.598  17.616   6.059
 1474SSM    NC317992   9.424   4.832   7.867
 1474SSM    PO417993   9.202   4.541   7.690
 1474SSM    OH117994   9.243   4.768   7.391
 1474SSM    AM217995   9.095   4.551   7.227
 1474SSM    T1A17996   9.279   5.006   7.142
 1474SSM    C2A17997   9.471   5.227   6.846
 1474SSM    C3A17998   9.612   5.299   6.433
 1474SSM    C4A17999   9.901   5.427   6.074
 1474SSM    C1B18000   9.021   4.496   6.792
 1474SSM    C2B18001   9.053   4.510   6.282
 1474SSM    C3B18002   8.886   4.420   5.801
 1474SSM    C4B18003   8.857   4.348   5.326
 1475SSM    NC318004  20.383  16.341   7.545
 1475SSM    PO418005  20.002  16.216   7.589
 1475SSM    OH118006  19.883  16.468   7.335
 1475SSM    AM218007  20.101  16.381   7.155
 1475SSM    T1A18008  19.732  16.638   7.069
 1475SSM    C2A18009  19.496  16.853   6.768
 1475SSM    C3A18010  19.517  16.859   6.268
 1475SSM    C4A18011  19.592  16.929   5.772
 1475SSM    C1B18012  20.052  16.287   6.796
 1475SSM    C2B18013  20.253  16.169   6.334
 1475SSM    C3B18014  20.212  16.130   5.837
 1475SSM    C4B18015  20.219  16.059   5.411
 1476SSM    NC318016  28.131  33.703   7.312
 1476SSM    PO418017  28.176  33.854   6.939
 1476SSM    OH118018  28.485  33.918   6.733
 1476SSM    AM218019  28.314  34.029   6.495
 1476SSM    T1A18020  28.792  33.913   6.580
 1476SSM    C2A18021  29.077  33.735   6.357
 1476SSM    C3A18022  29.057  33.527   5.885
 1476SSM    C4A18023  29.009  33.427   5.404
 1476SSM    C1B18024  28.154  34.032   6.119
 1476SSM    C2B18025  27.962  34.297   5.748
 1476SSM    C3B18026  27.762  34.292   5.310
 1476SSM    C4B18027  27.543  34.191   4.859
 1477SSM    NC318028  22.641  14.297   7.307
 1477SSM    PO418029  22.759  14.004   7.512
 1477SSM    OH118030  23.082  13.929   7.327
 1477SSM    AM218031  23.010  14.073   7.081
 1477SSM    T1A18032  23.385  13.842   7.145
 1477SSM    C2A18033  23.686  13.719   6.993
 1477SSM    C3A18034  23.947  13.702   6.607
 1477SSM    C4A18035  24.016  13.711   6.116
 1477SSM    C1B18036  22.744  14.201   6.806
 1477SSM    C2B18037  22.283  14.303   6.612
 1477SSM    C3B18038  21.820  14.338   6.449
 1477SSM    C4B18039  21.583  14.384   6.025
 1478SSM    NC318040  10.516  17.411   7.628
 1478SSM    PO418041  10.312  17.044   7.720
 1478SSM    OH118042  10.189  16.941   7.424
 1478SSM    AM218043  10.211  17.220   7.258
 1478SSM    T1A18044  10.224  16.827   7.113
 1478SSM    C2A18045  10.070  16.657   6.792
 1478SSM    C3A18046   9.987  16.494   6.382
 1478SSM    C4A18047   9.897  16.131   6.071
 1478SSM    C1B18048  10.134  17.321   6.873
 1478SSM    C2B18049  10.032  17.500   6.416
 1478SSM    C3B18050  10.099  17.394   5.954
 1478SSM    C4B18051   9.717  17.571   5.709
 1479SSM    NC318052  24.865   4.287   7.143
 1479SSM    PO418053  24.991   4.538   7.385
 1479SSM    OH118054  25.156   4.755   7.102
 1479SSM    AM218055  25.034   4.587   6.874
 1479SSM    T1A18056  25.044   5.003   6.889
 1479SSM    C2A18057  24.872   4.956   6.533
 1479SSM    C3A18058  24.982   5.016   5.996
 1479SSM    C4A18059  25.102   4.964   5.530
 1479SSM    C1B18060  24.744   4.469   6.643
 1479SSM    C2B18061  24.597   4.619   6.223
 1479SSM    C3B18062  24.623   4.695   5.737
 1479SSM    C4B18063  24.478   4.973   5.354
 1480SSM    NC318064  26.781   7.830   7.325
 1480SSM    PO418065  27.133   7.745   7.525
 1480SSM    OH118066  27.169   7.591   7.166
 1480SSM    AM218067  27.409   7.766   7.112
 1480SSM    T1A18068  27.217   7.480   6.826
 1480SSM    C2A18069  27.294   7.610   6.404
 1480SSM    C3A18070  27.323   7.593   5.934
 1480SSM    C4A18071  27.310   7.643   5.439
 1480SSM    C1B18072  27.451   8.014   6.865
 1480SSM    C2B18073  27.468   8.035   6.303
 1480SSM    C3B18074  27.373   8.331   5.942
 1480SSM    C4B18075  27.237   8.534   5.525
 1481SSM    NC318076  24.582   6.170   7.874
 1481SSM    PO418077  24.903   6.314   7.669
 1481SSM    OH118078  25.052   6.236   7.317
 1481SSM    AM218079  24.757   6.195   7.235
 1481SSM    T1A18080  25.116   6.259   6.984
 1481SSM    C2A18081  25.009   6.228   6.628
 1481SSM    C3A18082  24.926   6.251   6.202
 1481SSM    C4A18083  24.932   6.227   5.713
 1481SSM    C1B18084  24.551   6.383   6.957
 1481SSM    C2B18085  24.458   6.255   6.441
 1481SSM    C3B18086  24.487   6.191   6.015
 1481SSM    C4B18087  24.444   6.136   5.502
 1482SSM    NC318088  16.748   4.821   7.740
 1482SSM    PO418089  16.469   5.057   7.850
 1482SSM    OH118090  16.297   5.304   7.592
 1482SSM    AM218091  16.292   5.041   7.396
 1482SSM    T1A18092  16.191   5.465   7.298
 1482SSM    C2A18093  16.058   5.470   6.959
 1482SSM    C3A18094  15.986   5.433   6.559
 1482SSM    C4A18095  15.891   5.452   6.059
 1482SSM    C1B18096  16.250   4.931   7.027
 1482SSM    C2B18097  16.136   4.937   6.581
 1482SSM    C3B18098  16.042   4.938   6.097
 1482SSM    C4B18099  15.665   5.072   5.815
 1483SSM    NC318100  27.869  31.623   7.044
 1483SSM    PO418101  28.069  31.395   6.838
 1483SSM    OH118102  28.088  31.083   6.617
 1483SSM    AM218103  27.865  31.182   6.456
 1483SSM    T1A18104  28.229  30.963   6.322
 1483SSM    C2A18105  28.386  30.985   5.985
 1483SSM    C3A18106  28.169  30.995   5.519
 1483SSM    C4A18107  28.148  30.622   5.169
 1483SSM    C1B18108  27.663  31.115   6.127
 1483SSM    C2B18109  27.583  30.966   5.651
 1483SSM    C3B18110  27.748  30.874   5.275
 1483SSM    C4B18111  27.627  30.617   4.898
 1484SSM    NC318112  25.197  12.820   7.880
 1484SSM    PO418113  25.412  13.131   7.776
 1484SSM    OH118114  25.239  13.305   7.489
 1484SSM    AM218115  25.464  13.218   7.319
 1484SSM    T1A18116  25.100  13.437   7.219
 1484SSM    C2A18117  25.109  13.396   6.841
 1484SSM    C3A18118  25.161  13.411   6.323
 1484SSM    C4A18119  25.265  13.362   5.862
 1484SSM    C1B18120  25.507  13.138   6.939
 1484SSM    C2B18121  25.569  13.043   6.392
 1484SSM    C3B18122  25.694  12.964   5.929
 1484SSM    C4B18123  25.790  12.808   5.475
 1485SSM    NC318124  34.812   7.639   8.251
 1485SSM    PO418125  35.073   7.795   7.963
 1485SSM    OH118126  35.104   7.752   7.592
 1485SSM    AM218127  34.841   7.911   7.524
 1485SSM    T1A18128  35.226   7.803   7.259
 1485SSM    C2A18129  35.293   7.866   6.872
 1485SSM    C3A18130  35.494   8.135   6.538
 1485SSM    C4A18131  35.604   8.493   6.180
 1485SSM    C1B18132  34.737   8.114   7.222
 1485SSM    C2B18133  34.850   8.297   6.766
 1485SSM    C3B18134  35.059   8.149   6.360
 1485SSM    C4B18135  35.357   7.952   6.049
 1486SSM    NC318136  24.055  14.846   7.636
 1486SSM    PO418137  23.762  15.100   7.637
 1486SSM    OH118138  23.602  15.224   7.293
 1486SSM    AM218139  23.705  15.036   7.118
 1486SSM    T1A18140  23.363  15.276   7.039
 1486SSM    C2A18141  23.456  15.256   6.639
 1486SSM    C3A18142  23.365  15.180   6.185
 1486SSM    C4A18143  23.520  15.240   5.738
 1486SSM    C1B18144  23.963  15.060   6.865
 1486SSM    C2B18145  23.894  15.174   6.402
 1486SSM    C3B18146  23.814  15.453   6.023
 1486SSM    C4B18147  23.775  15.692   5.598
 1487SSM    NC318148   2.032  30.759   7.988
 1487SSM    PO418149   1.997  31.110   8.132
 1487SSM    OH118150   2.153  31.318   7.939
 1487SSM    AM218151   2.118  31.166   7.663
 1487SSM    T1A18152   1.995  31.567   7.732
 1487SSM    C2A18153   1.817  31.680   7.376
 1487SSM    C3A18154   1.719  31.675   6.975
 1487SSM    C4A18155   1.793  31.715   6.516
 1487SSM    C1B18156   1.910  31.166   7.300
 1487SSM    C2B18157   1.806  31.236   6.806
 1487SSM    C3B18158   1.501  31.313   6.361
 1487SSM    C4B18159   1.408  31.351   5.840
 1488SSM    NC318160  28.007  15.014   7.788
 1488SSM    PO418161  27.642  14.887   7.649
 1488SSM    OH118162  27.799  14.729   7.326
 1488SSM    AM218163  27.961  14.977   7.297
 1488SSM    T1A18164  27.901  14.577   7.038
 1488SSM    C2A18165  28.009  14.433   6.702
 1488SSM    C3A18166  28.154  14.520   6.296
 1488SSM    C4A18167  27.995  14.615   5.823
 1488SSM    C1B18168  28.024  15.205   6.959
 1488SSM    C2B18169  28.122  15.080   6.515
 1488SSM    C3B18170  28.073  15.045   6.031
 1488SSM    C4B18171  27.840  15.073   5.622
 1489SSM    NC318172  20.261  33.719   8.132
 1489SSM    PO418173  20.541  33.781   7.856
 1489SSM    OH118174  20.469  33.692   7.503
 1489SSM    AM218175  20.749  33.708   7.425
 1489SSM    T1A18176  20.436  33.559   7.193
 1489SSM    C2A18177  20.520  33.454   6.804
 1489SSM    C3A18178  20.626  33.479   6.300
 1489SSM    C4A18179  20.614  33.416   5.831
 1489SSM    C1B18180  20.947  33.761   7.092
 1489SSM    C2B18181  21.010  33.663   6.626
 1489SSM    C3B18182  21.180  33.513   6.139
 1489SSM    C4B18183  21.465  33.155   5.906
 1490SSM    NC318184  16.596   2.431   7.751
 1490SSM    PO418185  16.486   2.146   7.469
 1490SSM    OH118186  16.614   2.445   7.239
 1490SSM    AM218187  16.597   2.235   7.038
 1490SSM    T1A18188  16.766   2.590   6.942
 1490SSM    C2A18189  16.869   2.611   6.573
 1490SSM    C3A18190  16.983   2.587   6.090
 1490SSM    C4A18191  17.089   2.611   5.620
 1490SSM    C1B18192  16.530   2.175   6.649
 1490SSM    C2B18193  16.547   2.172   6.179
 1490SSM    C3B18194  16.685   2.330   5.740
 1490SSM    C4B18195  16.738   2.344   5.253
 1491SSM    NC318196  27.017  35.920   7.758
 1491SSM    PO418197  27.186  36.235   7.626
 1491SSM    OH118198  27.044  36.249   7.285
 1491SSM    AM218199  27.237  36.444   7.188
 1491SSM    T1A18200  26.895  36.225   6.975
 1491SSM    C2A18201  26.842  36.155   6.615
 1491SSM    C3A18202  26.953  36.321   6.155
 1491SSM    C4A18203  27.047  36.426   5.688
 1491SSM    C1B18204  27.228  36.589   6.843
 1491SSM    C2B18205  27.306  36.747   6.356
 1491SSM    C3B18206  27.288  36.786   5.916
 1491SSM    C4B18207  27.238  37.109   5.561
 1492SSM    NC318208  26.327   0.284   8.073
 1492SSM    PO418209  26.250   0.506   7.791
 1492SSM    OH118210  26.359   0.314   7.488
 1492SSM    AM218211  26.495   0.540   7.332
 1492SSM    T1A18212  26.083   0.268   7.263
 1492SSM    C2A18213  25.926   0.142   6.939
 1492SSM    C3A18214  25.942   0.046   6.546
 1492SSM    C4A18215  25.829  -0.032   6.133
 1492SSM    C1B18216  26.624   0.564   6.991
 1492SSM    C2B18217  26.754   0.634   6.461
 1492SSM    C3B18218  26.807   0.769   6.002
 1492SSM    C4B18219  26.778   0.860   5.497
 1493SSM    NC318220  33.846  32.496   7.772
 1493SSM    PO418221  33.440  32.640   7.692
 1493SSM    OH118222  33.406  32.680   7.340
 1493SSM    AM218223  33.691  32.781   7.284
 1493SSM    T1A18224  33.409  32.678   6.966
 1493SSM    C2A18225  33.525  32.531   6.611
 1493SSM    C3A18226  33.624  32.350   6.132
 1493SSM    C4A18227  33.399  32.226   5.756
 1493SSM    C1B18228  33.872  32.834   6.930
 1493SSM    C2B18229  33.905  32.757   6.437
 1493SSM    C3B18230  33.928  32.729   6.001
 1493SSM    C4B18231  33.802  32.556   5.575
 1494SSM    NC318232  19.659  18.045   7.472
 1494SSM    PO418233  19.441  17.783   7.649
 1494SSM    OH118234  19.158  17.775   7.402
 1494SSM    AM218235  19.240  17.533   7.245
 1494SSM    T1A18236  18.957  17.798   7.118
 1494SSM    C2A18237  19.041  17.847   6.733
 1494SSM    C3A18238  19.052  17.914   6.256
 1494SSM    C4A18239  19.518  18.196   6.054
 1494SSM    C1B18240  19.341  17.409   6.842
 1494SSM    C2B18241  19.285  17.315   6.302
 1494SSM    C3B18242  19.181  17.249   5.875
 1494SSM    C4B18243  18.973  17.287   5.418
 1495SSM    NC318244  26.538  32.424   7.212
 1495SSM    PO418245  26.689  32.774   7.240
 1495SSM    OH118246  26.716  32.888   6.876
 1495SSM    AM218247  26.731  32.580   6.809
 1495SSM    T1A18248  26.593  32.855   6.572
 1495SSM    C2A18249  26.543  32.849   6.179
 1495SSM    C3A18250  26.679  32.705   5.767
 1495SSM    C4A18251  27.116  32.408   5.687
 1495SSM    C1B18252  26.827  32.332   6.571
 1495SSM    C2B18253  26.585  31.937   6.239
 1495SSM    C3B18254  26.249  31.762   6.308
 1495SSM    C4B18255  25.919  31.375   6.307
 1496SSM    NC318256  27.735  12.616   7.722
 1496SSM    PO418257  28.041  12.689   7.473
 1496SSM    OH118258  27.994  12.885   7.171
 1496SSM    AM218259  28.222  13.072   7.258
 1496SSM    T1A18260  27.990  13.027   6.868
 1496SSM    C2A18261  28.128  13.237   6.507
 1496SSM    C3A18262  28.032  13.296   6.008
 1496SSM    C4A18263  28.129  13.316   5.527
 1496SSM    C1B18264  28.406  13.390   7.023
 1496SSM    C2B18265  28.584  13.389   6.501
 1496SSM    C3B18266  28.570  13.225   6.044
 1496SSM    C4B18267  28.635  13.156   5.540
 1497SSM    NC318268  32.484  18.657   8.052
 1497SSM    PO418269  32.208  18.466   7.859
 1497SSM    OH118270  32.131  18.303   7.525
 1497SSM    AM218271  32.303  18.497   7.373
 1497SSM    T1A18272  31.873  18.331   7.274
 1497SSM    C2A18273  31.781  18.236   6.850
 1497SSM    C3A18274  31.590  18.102   6.439
 1497SSM    C4A18275  31.215  17.970   6.021
 1497SSM    C1B18276  32.594  18.486   7.111
 1497SSM    C2B18277  32.862  18.362   6.758
 1497SSM    C3B18278  32.866  18.249   6.295
 1497SSM    C4B18279  33.048  18.052   5.896
 1498SSM    NC318280  28.118   9.362   8.005
 1498SSM    PO418281  27.971   9.099   7.702
 1498SSM    OH118282  28.090   9.087   7.337
 1498SSM    AM218283  28.049   9.388   7.298
 1498SSM    T1A18284  28.077   9.072   6.997
 1498SSM    C2A18285  28.128   9.068   6.577
 1498SSM    C3A18286  28.003   9.011   6.104
 1498SSM    C4A18287  27.683   9.089   5.701
 1498SSM    C1B18288  28.022   9.539   6.962
 1498SSM    C2B18289  27.925   9.615   6.477
 1498SSM    C3B18290  27.798   9.620   6.018
 1498SSM    C4B18291  27.709   9.561   5.550
 1499SSM    NC318292  35.247  14.411   7.844
 1499SSM    PO418293  35.606  14.393   7.988
 1499SSM    OH118294  35.783  14.473   7.659
 1499SSM    AM218295  35.552  14.323   7.523
 1499SSM    T1A18296  35.936  14.544   7.352
 1499SSM    C2A18297  36.097  14.329   7.125
 1499SSM    C3A18298  36.296  14.251   6.700
 1499SSM    C4A18299  36.361  14.223   6.258
 1499SSM    C1B18300  35.379  14.236   7.189
 1499SSM    C2B18301  35.268  14.261   6.680
 1499SSM    C3B18302  35.138  14.169   6.230
 1499SSM    C4B18303  34.923  14.269   5.836
 1500SSM    NC318304   4.953  26.128   8.005
 1500SSM    PO418305   4.682  25.976   7.755
 1500SSM    OH118306   4.679  26.059   7.424
 1500SSM    AM218307   4.435  25.888   7.381
 1500SSM    T1A18308   4.746  25.981   7.086
 1500SSM    C2A18309   4.959  26.009   6.752
 1500SSM    C3A18310   5.053  26.180   6.293
 1500SSM    C4A18311   5.068  26.292   5.829
 1500SSM    C1B18312   4.234  25.653   7.078
 1500SSM    C2B18313   4.144  25.501   6.634
 1500SSM    C3B18314   3.914  25.235   6.320
 1500SSM    C4B18315   3.666  25.373   5.904
 1501SSM    NC318316  30.039  27.168   7.385
 1501SSM    PO418317  29.720  26.938   7.356
 1501SSM    OH118318  29.527  27.061   7.078
 1501SSM    AM218319  29.604  27.353   7.104
 1501SSM    T1A18320  29.560  27.116   6.742
 1501SSM    C2A18321  29.779  27.092   6.423
 1501SSM    C3A18322  29.899  26.967   5.986
 1501SSM    C4A18323  29.924  27.139   5.547
 1501SSM    C1B18324  29.600  27.788   7.041
 1501SSM    C2B18325  29.467  27.993   6.601
 1501SSM    C3B18326  29.370  27.966   6.128
 1501SSM    C4B18327  29.337  27.673   5.739
 1502SSM    NC318328   8.663  15.982   8.235
 1502SSM    PO418329   8.792  16.193   7.972
 1502SSM    OH118330   8.874  16.107   7.617
 1502SSM    AM218331   8.907  16.392   7.523
 1502SSM    T1A18332   9.130  16.037   7.420
 1502SSM    C2A18333   9.117  16.051   7.020
 1502SSM    C3A18334   9.143  16.131   6.525
 1502SSM    C4A18335   9.368  16.198   6.055
 1502SSM    C1B18336   8.868  16.490   7.155
 1502SSM    C2B18337   8.869  16.572   6.612
 1502SSM    C3B18338   8.909  16.556   6.108
 1502SSM    C4B18339   9.325  16.687   5.849
 1503SSM    NC318340  28.052   2.600   8.256
 1503SSM    PO418341  28.164   2.860   7.961
 1503SSM    OH118342  28.288   2.748   7.594
 1503SSM    AM218343  28.194   3.031   7.494
 1503SSM    T1A18344  28.180   2.632   7.291
 1503SSM    C2A18345  27.952   2.729   6.991
 1503SSM    C3A18346  27.931   2.640   6.519
 1503SSM    C4A18347  27.905   2.530   6.022
 1503SSM    C1B18348  27.967   3.151   7.247
 1503SSM    C2B18349  27.880   3.179   6.704
 1503SSM    C3B18350  27.891   3.028   6.206
 1503SSM    C4B18351  27.823   2.912   5.726
 1504SSM    NC318352  30.773  17.026   7.630
 1504SSM    PO418353  31.057  16.938   7.322
 1504SSM    OH118354  31.201  16.601   7.172
 1504SSM    AM218355  30.981  16.570   6.959
 1504SSM    T1A18356  31.345  16.316   7.041
 1504SSM    C2A18357  31.340  16.010   6.808
 1504SSM    C3A18358  31.466  15.887   6.348
 1504SSM    C4A18359  31.535  15.821   5.886
 1504SSM    C1B18360  30.763  16.558   6.580
 1504SSM    C2B18361  30.823  16.507   6.046
 1504SSM    C3B18362  30.874  16.644   5.582
 1504SSM    C4B18363  30.949  16.821   5.151
 1505SSM    NC318364  29.786  26.000   7.608
 1505SSM    PO418365  30.009  26.301   7.465
 1505SSM    OH118366  29.854  26.241   7.152
 1505SSM    AM218367  30.065  26.365   7.013
 1505SSM    T1A18368  29.684  26.184   6.871
 1505SSM    C2A18369  29.585  26.045   6.530
 1505SSM    C3A18370  29.540  25.920   6.008
 1505SSM    C4A18371  29.649  26.054   5.532
 1505SSM    C1B18372  30.156  26.565   6.623
 1505SSM    C2B18373  30.261  26.592   6.124
 1505SSM    C3B18374  30.358  26.922   5.794
 1505SSM    C4B18375  30.421  27.300   5.469
 1506SSM    NC318376  18.847  16.869   8.050
 1506SSM    PO418377  19.092  16.899   7.725
 1506SSM    OH118378  19.113  17.016   7.372
 1506SSM    AM218379  18.831  16.960   7.344
 1506SSM    T1A18380  19.123  17.007   7.032
 1506SSM    C2A18381  19.057  17.044   6.640
 1506SSM    C3A18382  18.931  17.003   6.221
 1506SSM    C4A18383  18.801  16.939   5.753
 1506SSM    C1B18384  18.446  16.953   7.072
 1506SSM    C2B18385  17.991  16.847   6.825
 1506SSM    C3B18386  17.673  16.711   6.492
 1506SSM    C4B18387  17.235  16.739   6.335
 1507SSM    NC318388  21.022  13.181   7.898
 1507SSM    PO418389  20.681  12.945   7.921
 1507SSM    OH118390  20.504  12.791   7.612
 1507SSM    AM218391  20.716  12.900   7.444
 1507SSM    T1A18392  20.368  12.648   7.347
 1507SSM    C2A18393  20.231  12.735   6.978
 1507SSM    C3A18394  20.037  12.662   6.552
 1507SSM    C4A18395  19.714  12.584   6.192
 1507SSM    C1B18396  20.813  13.015   7.138
 1507SSM    C2B18397  21.139  13.370   6.947
 1507SSM    C3B18398  21.274  13.467   6.548
 1507SSM    C4B18399  20.894  13.715   6.365
 1508SSM    NC318400  30.384  17.466   7.573
 1508SSM    PO418401  30.561  17.765   7.676
 1508SSM    OH118402  30.495  17.968   7.369
 1508SSM    AM218403  30.432  17.698   7.224
 1508SSM    T1A18404  30.601  18.122   7.107
 1508SSM    C2A18405  30.793  18.191   6.738
 1508SSM    C3A18406  30.929  18.346   6.327
 1508SSM    C4A18407  30.816  18.242   5.845
 1508SSM    C1B18408  30.328  17.505   6.909
 1508SSM    C2B18409  30.245  17.035   6.684
 1508SSM    C3B18410  30.303  16.926   6.207
 1508SSM    C4B18411  30.310  16.853   5.736
 1509SSM    NC318412  25.147  27.720   7.652
 1509SSM    PO418413  25.349  27.888   7.373
 1509SSM    OH118414  25.202  27.601   7.149
 1509SSM    AM218415  25.345  27.760   6.921
 1509SSM    T1A18416  25.001  27.458   6.920
 1509SSM    C2A18417  24.972  27.504   6.545
 1509SSM    C3A18418  24.972  27.500   6.092
 1509SSM    C4A18419  25.028  27.708   5.617
 1509SSM    C1B18420  25.349  27.787   6.488
 1509SSM    C2B18421  25.314  27.864   5.969
 1509SSM    C3B18422  25.368  28.018   5.487
 1509SSM    C4B18423  25.475  27.984   5.011
 1510SSM    NC318424   8.751  18.200   7.373
 1510SSM    PO418425   8.496  18.524   7.363
 1510SSM    OH118426   8.535  18.410   7.006
 1510SSM    AM218427   8.789  18.560   6.977
 1510SSM    T1A18428   8.547  18.453   6.643
 1510SSM    C2A18429   8.476  18.484   6.264
 1510SSM    C3A18430   8.247  18.425   5.837
 1510SSM    C4A18431   8.116  18.504   5.369
 1510SSM    C1B18432   8.904  18.704   6.580
 1510SSM    C2B18433   8.897  18.808   6.096
 1510SSM    C3B18434   9.064  18.763   5.654
 1510SSM    C4B18435   8.917  18.785   5.136
 1511SSM    NC318436  35.661  13.582   8.035
 1511SSM    PO418437  35.422  13.403   7.777
 1511SSM    OH118438  35.594  13.315   7.406
 1511SSM    AM218439  35.689  13.608   7.410
 1511SSM    T1A18440  35.770  13.262   7.149
 1511SSM    C2A18441  35.831  13.217   6.810
 1511SSM    C3A18442  35.748  13.234   6.331
 1511SSM    C4A18443  35.774  13.002   5.871
 1511SSM    C1B18444  35.821  13.959   7.233
 1511SSM    C2B18445  35.832  13.985   6.758
 1511SSM    C3B18446  35.873  14.252   6.401
 1511SSM    C4B18447  35.931  14.517   6.036
 1512SSM    NC318448  26.395   8.490   7.994
 1512SSM    PO418449  26.304   8.121   7.879
 1512SSM    OH118450  26.363   7.914   7.551
 1512SSM    AM218451  26.484   8.162   7.448
 1512SSM    T1A18452  26.289   7.850   7.226
 1512SSM    C2A18453  26.336   8.084   6.878
 1512SSM    C3A18454  26.252   8.236   6.469
 1512SSM    C4A18455  26.445   8.276   6.016
 1512SSM    C1B18456  26.776   8.350   7.245
 1512SSM    C2B18457  27.150   8.495   6.833
 1512SSM    C3B18458  27.201   8.608   6.382
 1512SSM    C4B18459  26.860   8.625   5.960
 1513SSM    NC318460  21.058  29.847   7.736
 1513SSM    PO418461  21.155  30.057   7.486
 1513SSM    OH118462  21.062  30.381   7.369
 1513SSM    AM218463  21.292  30.438   7.188
 1513SSM    T1A18464  20.956  30.665   7.208
 1513SSM    C2A18465  20.788  30.963   6.994
 1513SSM    C3A18466  20.523  31.238   6.704
 1513SSM    C4A18467  20.181  31.283   6.335
 1513SSM    C1B18468  21.281  30.597   6.848
 1513SSM    C2B18469  21.409  30.753   6.429
 1513SSM    C3B18470  21.633  30.962   6.059
 1513SSM    C4B18471  21.893  31.202   5.654
 1514SSM    NC318472  15.135   6.563   7.668
 1514SSM    PO418473  14.745   6.703   7.513
 1514SSM    OH118474  14.634   6.763   7.186
 1514SSM    AM218475  14.867   6.980   7.165
 1514SSM    T1A18476  14.547   6.866   6.861
 1514SSM    C2A18477  14.554   6.651   6.540
 1514SSM    C3A18478  14.275   6.403   6.242
 1514SSM    C4A18479  14.095   6.179   5.781
 1514SSM    C1B18480  14.934   7.263   6.965
 1514SSM    C2B18481  14.830   7.148   6.489
 1514SSM    C3B18482  14.691   6.935   6.098
 1514SSM    C4B18483  14.741   6.426   6.115
 1515SSM    NC318484  21.226  10.662   8.050
 1515SSM    PO418485  21.013  10.784   7.753
 1515SSM    OH118486  21.036  10.527   7.524
 1515SSM    AM218487  20.818  10.609   7.333
 1515SSM    T1A18488  21.126  10.240   7.343
 1515SSM    C2A18489  21.037  10.246   6.915
 1515SSM    C3A18490  20.989  10.371   6.450
 1515SSM    C4A18491  20.591  10.411   6.114
 1515SSM    C1B18492  20.600  10.585   6.986
 1515SSM    C2B18493  20.345  10.496   6.515
 1515SSM    C3B18494  20.103  10.291   6.221
 1515SSM    C4B18495  19.751  10.535   6.013
 1516SSM    NC318496   5.794  14.740   7.493
 1516SSM    PO418497   5.406  14.774   7.513
 1516SSM    OH118498   5.353  15.035   7.289
 1516SSM    AM218499   5.528  14.907   7.077
 1516SSM    T1A18500   5.195  15.275   7.108
 1516SSM    C2A18501   5.035  15.365   6.786
 1516SSM    C3A18502   4.702  15.401   6.461
 1516SSM    C4A18503   4.604  15.520   5.981
 1516SSM    C1B18504   5.605  14.748   6.684
 1516SSM    C2B18505   5.678  14.378   6.374
 1516SSM    C3B18506   5.730  14.031   6.090
 1516SSM    C4B18507   5.903  13.788   5.707
 1517SSM    NC318508  23.304  22.886   7.678
 1517SSM    PO418509  23.259  23.299   7.590
 1517SSM    OH118510  23.426  23.442   7.264
 1517SSM    AM218511  23.117  23.435   7.151
 1517SSM    T1A18512  23.502  23.452   6.940
 1517SSM    C2A18513  23.386  23.480   6.582
 1517SSM    C3A18514  23.185  23.460   6.133
 1517SSM    C4A18515  23.164  23.314   5.675
 1517SSM    C1B18516  22.861  23.407   6.830
 1517SSM    C2B18517  22.563  23.436   6.373
 1517SSM    C3B18518  22.173  23.559   6.033
 1517SSM    C4B18519  21.811  23.860   5.876
 1518SSM    NC318520  16.602  14.956   7.271
 1518SSM    PO418521  16.246  15.124   7.198
 1518SSM    OH118522  16.053  14.886   7.028
 1518SSM    AM218523  15.890  15.077   6.885
 1518SSM    T1A18524  16.143  14.718   6.712
 1518SSM    C2A18525  16.269  14.727   6.321
 1518SSM    C3A18526  16.428  14.902   5.914
 1518SSM    C4A18527  16.522  15.322   5.711
 1518SSM    C1B18528  15.748  15.217   6.625
 1518SSM    C2B18529  15.606  15.355   6.116
 1518SSM    C3B18530  15.576  15.480   5.628
 1518SSM    C4B18531  15.759  15.747   5.223
 1519SSM    NC318532  33.956  30.444   8.366
 1519SSM    PO418533  33.714  30.415   8.047
 1519SSM    OH118534  33.748  30.534   7.712
 1519SSM    AM218535  33.867  30.271   7.585
 1519SSM    T1A18536  33.826  30.669   7.407
 1519SSM    C2A18537  33.799  30.837   7.029
 1519SSM    C3A18538  33.808  30.930   6.584
 1519SSM    C4A18539  33.667  30.835   6.124
 1519SSM    C1B18540  33.810  30.135   7.219
 1519SSM    C2B18541  33.902  29.904   6.789
 1519SSM    C3B18542  33.604  29.830   6.427
 1519SSM    C4B18543  33.255  29.550   6.205
 1520SSM    NC318544   8.101  21.453   7.189
 1520SSM    PO418545   8.090  21.099   7.350
 1520SSM    OH118546   8.297  20.766   7.209
 1520SSM    AM218547   8.071  20.693   7.009
 1520SSM    T1A18548   8.398  20.448   7.080
 1520SSM    C2A18549   8.498  20.576   6.742
 1520SSM    C3A18550   8.330  20.532   6.274
 1520SSM    C4A18551   8.345  20.438   5.774
 1520SSM    C1B18552   7.815  20.376   6.875
 1520SSM    C2B18553   7.854  20.390   6.377
 1520SSM    C3B18554   7.877  20.349   5.920
 1520SSM    C4B18555   8.009  20.256   5.430
 1521SSM    NC318556  16.275  18.820   7.775
 1521SSM    PO418557  16.405  18.468   7.881
 1521SSM    OH118558  16.582  18.344   7.525
 1521SSM    AM218559  16.313  18.205   7.485
 1521SSM    T1A18560  16.564  18.389   7.181
 1521SSM    C2A18561  16.462  18.446   6.805
 1521SSM    C3A18562  16.320  18.636   6.351
 1521SSM    C4A18563  16.200  19.045   6.114
 1521SSM    C1B18564  16.049  18.275   7.158
 1521SSM    C2B18565  16.002  18.285   6.613
 1521SSM    C3B18566  15.985  18.255   6.122
 1521SSM    C4B18567  16.201  18.286   5.684
 1522SSM    NC318568  33.355  14.111   8.272
 1522SSM    PO418569  33.504  13.913   8.000
 1522SSM    OH118570  33.497  14.084   7.686
 1522SSM    AM218571  33.784  14.045   7.603
 1522SSM    T1A18572  33.483  14.272   7.374
 1522SSM    C2A18573  33.384  14.339   6.980
 1522SSM    C3A18574  33.340  14.434   6.461
 1522SSM    C4A18575  33.259  14.383   5.943
 1522SSM    C1B18576  33.925  13.922   7.295
 1522SSM    C2B18577  34.173  13.585   6.994
 1522SSM    C3B18578  34.265  13.627   6.491
 1522SSM    C4B18579  34.563  13.885   6.172
 1523SSM    NC318580  29.881  29.706   7.549
 1523SSM    PO418581  30.248  29.782   7.673
 1523SSM    OH118582  30.443  29.519   7.464
 1523SSM    AM218583  30.600  29.744   7.345
 1523SSM    T1A18584  30.558  29.365   7.180
 1523SSM    C2A18585  30.785  29.177   6.933
 1523SSM    C3A18586  30.841  29.096   6.433
 1523SSM    C4A18587  30.894  29.010   5.916
 1523SSM    C1B18588  30.560  30.048   7.122
 1523SSM    C2B18589  30.614  30.315   6.625
 1523SSM    C3B18590  30.635  30.408   6.149
 1523SSM    C4B18591  30.814  30.353   5.662
 1524SSM    NC318592  27.758  10.478   7.900
 1524SSM    PO418593  27.688  10.159   7.720
 1524SSM    OH118594  27.462  10.113   7.429
 1524SSM    AM218595  27.689  10.062   7.209
 1524SSM    T1A18596  27.315  10.347   7.214
 1524SSM    C2A18597  27.245  10.359   6.799
 1524SSM    C3A18598  27.269  10.277   6.293
 1524SSM    C4A18599  27.316  10.312   5.780
 1524SSM    C1B18600  27.760  10.061   6.802
 1524SSM    C2B18601  27.794  10.074   6.253
 1524SSM    C3B18602  27.776  10.080   5.739
 1524SSM    C4B18603  27.746  10.016   5.283
 1525SSM    NC318604   4.855  16.291   8.022
 1525SSM    PO418605   4.639  16.027   7.847
 1525SSM    OH118606   4.583  15.929   7.483
 1525SSM    AM218607   4.398  15.699   7.522
 1525SSM    T1A18608   4.596  15.825   7.162
 1525SSM    C2A18609   4.583  15.742   6.804
 1525SSM    C3A18610   4.487  15.836   6.355
 1525SSM    C4A18611   4.183  15.823   5.901
 1525SSM    C1B18612   4.200  15.538   7.126
 1525SSM    C2B18613   4.110  15.519   6.647
 1525SSM    C3B18614   4.105  15.464   6.161
 1525SSM    C4B18615   3.853  15.485   5.675
 1526SSM    NC318616   8.581  19.265   8.052
 1526SSM    PO418617   8.898  19.173   7.818
 1526SSM    OH118618   8.921  19.394   7.485
 1526SSM    AM218619   9.063  19.157   7.314
 1526SSM    T1A18620   8.962  19.517   7.171
 1526SSM    C2A18621   9.093  19.578   6.736
 1526SSM    C3A18622   8.851  19.637   6.319
 1526SSM    C4A18623   8.601  19.539   5.869
 1526SSM    C1B18624   9.077  19.072   6.927
 1526SSM    C2B18625   9.091  19.187   6.391
 1526SSM    C3B18626   9.037  19.298   5.927
 1526SSM    C4B18627   9.058  19.339   5.481
 1527SSM    NC318628  29.415  22.645   7.593
 1527SSM    PO418629  29.449  22.963   7.308
 1527SSM    OH118630  29.366  22.823   7.008
 1527SSM    AM218631  29.067  22.812   7.045
 1527SSM    T1A18632  29.289  22.885   6.679
 1527SSM    C2A18633  29.120  22.959   6.316
 1527SSM    C3A18634  29.182  23.009   5.864
 1527SSM    C4A18635  29.388  23.291   5.533
 1527SSM    C1B18636  28.728  22.834   6.824
 1527SSM    C2B18637  28.504  22.975   6.393
 1527SSM    C3B18638  28.665  23.156   6.033
 1527SSM    C4B18639  28.876  23.242   5.608
 1528SSM    NC318640  33.889  29.183   7.457
 1528SSM    PO418641  33.996  29.393   7.760
 1528SSM    OH118642  33.993  29.762   7.724
 1528SSM    AM218643  33.777  29.732   7.533
 1528SSM    T1A18644  34.160  29.836   7.419
 1528SSM    C2A18645  34.286  29.976   7.084
 1528SSM    C3A18646  34.388  30.136   6.661
 1528SSM    C4A18647  34.355  30.203   6.127
 1528SSM    C1B18648  33.816  29.646   7.167
 1528SSM    C2B18649  33.786  29.363   6.744
 1528SSM    C3B18650  33.735  29.329   6.228
 1528SSM    C4B18651  33.991  29.064   5.928
 1529SSM    NC318652  11.983   0.134   7.272
 1529SSM    PO418653  11.818   0.415   6.990
 1529SSM    OH118654  11.934   0.568   6.643
 1529SSM    AM218655  12.077   0.294   6.580
 1529SSM    T1A18656  11.841   0.557   6.311
 1529SSM    C2A18657  11.779   0.467   5.924
 1529SSM    C3A18658  11.653   0.336   5.454
 1529SSM    C4A18659  11.386   0.289   5.029
 1529SSM    C1B18660  12.129  -0.160   6.451
 1529SSM    C2B18661  12.267  -0.548   6.140
 1529SSM    C3B18662  12.253  -0.450   5.666
 1529SSM    C4B18663  12.050  -0.543   5.216
 1530SSM    NC318664   6.387  18.294   7.384
 1530SSM    PO418665   6.086  18.096   7.396
 1530SSM    OH118666   6.116  17.829   7.161
 1530SSM    AM218667   6.048  17.976   6.914
 1530SSM    T1A18668   6.268  17.589   7.015
 1530SSM    C2A18669   6.121  17.386   6.702
 1530SSM    C3A18670   6.181  17.277   6.192
 1530SSM    C4A18671   6.210  17.218   5.800
 1530SSM    C1B18672   6.134  18.178   6.516
 1530SSM    C2B18673   6.209  18.250   6.050
 1530SSM    C3B18674   6.199  18.262   5.581
 1530SSM    C4B18675   6.193  17.882   5.297
 1531SSM    NC318676  30.114   3.098   8.045
 1531SSM    PO418677  30.255   2.862   7.737
 1531SSM    OH118678  30.428   2.814   7.391
 1531SSM    AM218679  30.150   2.894   7.269
 1531SSM    T1A18680  30.584   3.001   7.139
 1531SSM    C2A18681  30.524   3.004   6.759
 1531SSM    C3A18682  30.391   3.357   6.501
 1531SSM    C4A18683  30.456   3.608   6.076
 1531SSM    C1B18684  30.066   2.909   6.916
 1531SSM    C2B18685  30.128   2.960   6.411
 1531SSM    C3B18686  30.208   3.129   5.985
 1531SSM    C4B18687  30.381   3.185   5.561
 1532SSM    NC318688  32.149   9.753   7.427
 1532SSM    PO418689  32.259   9.898   7.110
 1532SSM    OH118690  32.323   9.655   6.827
 1532SSM    AM218691  32.222   9.880   6.616
 1532SSM    T1A18692  32.345   9.485   6.536
 1532SSM    C2A18693  32.306   9.396   6.108
 1532SSM    C3A18694  32.226   9.267   5.607
 1532SSM    C4A18695  32.069   9.465   5.164
 1532SSM    C1B18696  31.954   9.873   6.295
 1532SSM    C2B18697  31.741  10.061   5.778
 1532SSM    C3B18698  31.688  10.434   5.436
 1532SSM    C4B18699  31.751  10.802   5.134
 1533SSM    NC318700   6.849  20.592   7.173
 1533SSM    PO418701   7.156  20.515   7.398
 1533SSM    OH118702   7.349  20.356   7.172
 1533SSM    AM218703   7.331  20.589   6.949
 1533SSM    T1A18704   7.386  20.132   6.922
 1533SSM    C2A18705   7.400  20.224   6.538
 1533SSM    C3A18706   7.395  20.409   6.128
 1533SSM    C4A18707   7.405  20.385   5.612
 1533SSM    C1B18708   7.557  20.713   6.536
 1533SSM    C2B18709   7.673  20.808   6.075
 1533SSM    C3B18710   7.827  20.762   5.607
 1533SSM    C4B18711   7.865  20.603   5.115
 1534SSM    NC318712   6.505  19.157   7.333
 1534SSM    PO418713   6.289  18.838   7.529
 1534SSM    OH118714   6.316  18.717   7.133
 1534SSM    AM218715   6.131  18.965   7.086
 1534SSM    T1A18716   6.274  18.713   6.786
 1534SSM    C2A18717   6.292  18.667   6.354
 1534SSM    C3A18718   6.252  18.735   5.853
 1534SSM    C4A18719   6.329  19.077   5.471
 1534SSM    C1B18720   5.876  19.260   6.878
 1534SSM    C2B18721   5.664  19.511   6.470
 1534SSM    C3B18722   5.628  19.558   6.001
 1534SSM    C4B18723   5.617  19.583   5.505
 1535SSM    NC318724   3.463  31.862   8.142
 1535SSM    PO418725   3.349  31.550   7.910
 1535SSM    OH118726   3.385  31.563   7.546
 1535SSM    AM218727   3.283  31.845   7.513
 1535SSM    T1A18728   3.303  31.557   7.226
 1535SSM    C2A18729   3.251  31.579   6.839
 1535SSM    C3A18730   3.086  31.616   6.380
 1535SSM    C4A18731   3.130  31.856   5.883
 1535SSM    C1B18732   3.179  32.157   7.297
 1535SSM    C2B18733   2.917  32.475   6.907
 1535SSM    C3B18734   2.940  32.963   6.670
 1535SSM    C4B18735   3.103  33.426   6.492
 1536SSM    NC318736   8.313  13.379   8.065
 1536SSM    PO418737   8.443  13.348   7.694
 1536SSM    OH118738   8.133  13.415   7.466
 1536SSM    AM218739   8.345  13.553   7.250
 1536SSM    T1A18740   7.936  13.528   7.189
 1536SSM    C2A18741   8.005  13.605   6.816
 1536SSM    C3A18742   8.268  13.666   6.402
 1536SSM    C4A18743   8.357  13.802   5.948
 1536SSM    C1B18744   8.512  13.628   6.894
 1536SSM    C2B18745   8.604  13.978   6.535
 1536SSM    C3B18746   8.753  14.282   6.241
 1536SSM    C4B18747   8.902  14.381   5.846
 1537SSM    NC318748   0.275  33.301   7.753
 1537SSM    PO418749   0.101  33.663   7.665
 1537SSM    OH118750   0.087  33.738   7.310
 1537SSM    AM218751   0.318  33.559   7.258
 1537SSM    T1A18752   0.092  33.723   6.965
 1537SSM    C2A18753   0.286  33.752   6.620
 1537SSM    C3A18754   0.256  33.700   6.196
 1537SSM    C4A18755  -0.007  33.529   5.799
 1537SSM    C1B18756   0.507  33.446   6.968
 1537SSM    C2B18757   0.478  33.307   6.396
 1537SSM    C3B18758   0.408  33.274   5.874
 1537SSM    C4B18759   0.309  33.369   5.400
 1538SSM    NC318760  32.158   8.524   7.416
 1538SSM    PO418761  32.481   8.312   7.425
 1538SSM    OH118762  32.389   8.020   7.241
 1538SSM    AM218763  32.097   8.085   7.251
 1538SSM    T1A18764  32.306   7.884   6.934
 1538SSM    C2A18765  32.283   7.713   6.552
 1538SSM    C3A18766  32.317   7.690   6.035
 1538SSM    C4A18767  32.445   7.697   5.557
 1538SSM    C1B18768  31.895   8.004   6.877
 1538SSM    C2B18769  31.827   7.878   6.371
 1538SSM    C3B18770  31.886   7.947   5.886
 1538SSM    C4B18771  32.028   8.016   5.443
 1539SSM    NC318772  16.981   9.379   8.207
 1539SSM    PO418773  16.826   9.048   8.026
 1539SSM    OH118774  16.756   8.889   7.685
 1539SSM    AM218775  16.604   9.138   7.601
 1539SSM    T1A18776  16.851   8.783   7.371
 1539SSM    C2A18777  16.872   8.589   7.019
 1539SSM    C3A18778  16.868   8.481   6.588
 1539SSM    C4A18779  16.800   8.409   6.111
 1539SSM    C1B18780  16.726   9.343   7.321
 1539SSM    C2B18781  16.660   9.556   6.856
 1539SSM    C3B18782  16.649   9.526   6.406
 1539SSM    C4B18783  16.586   9.329   5.985
 1540SSM    NC318784   4.844  31.827   8.042
 1540SSM    PO418785   4.657  32.090   7.795
 1540SSM    OH118786   4.782  31.825   7.581
 1540SSM    AM218787   4.579  31.921   7.367
 1540SSM    T1A18788   5.025  31.749   7.352
 1540SSM    C2A18789   5.060  31.648   6.977
 1540SSM    C3A18790   4.926  31.737   6.504
 1540SSM    C4A18791   4.979  31.615   6.035
 1540SSM    C1B18792   4.253  31.851   7.264
 1540SSM    C2B18793   4.090  31.667   6.798
 1540SSM    C3B18794   4.138  31.728   6.336
 1540SSM    C4B18795   4.086  31.796   5.840
 1541SSM    NC318796  11.440   2.699   7.144
 1541SSM    PO418797  11.058   2.691   7.035
 1541SSM    OH118798  10.966   2.702   6.680
 1541SSM    AM218799  11.041   3.013   6.667
 1541SSM    T1A18800  11.014   2.604   6.351
 1541SSM    C2A18801  11.166   2.479   6.006
 1541SSM    C3A18802  11.375   2.634   5.599
 1541SSM    C4A18803  11.457   2.655   5.164
 1541SSM    C1B18804  10.955   3.327   6.429
 1541SSM    C2B18805  10.856   3.292   5.865
 1541SSM    C3B18806  10.748   3.167   5.387
 1541SSM    C4B18807  10.976   2.976   5.003
 1542SSM    NC318808  26.467  13.776   7.809
 1542SSM    PO418809  26.116  13.589   7.699
 1542SSM    OH118810  26.096  13.428   7.371
 1542SSM    AM218811  26.354  13.546   7.239
 1542SSM    T1A18812  26.045  13.288   7.056
 1542SSM    C2A18813  26.153  13.250   6.705
 1542SSM    C3A18814  26.114  13.259   6.210
 1542SSM    C4A18815  26.140  13.402   5.694
 1542SSM    C1B18816  26.605  13.430   6.892
 1542SSM    C2B18817  26.686  13.423   6.371
 1542SSM    C3B18818  26.620  13.484   5.945
 1542SSM    C4B18819  26.565  13.776   5.520
 1543SSM    NC318820  10.023   6.123   7.434
 1543SSM    PO418821   9.934   6.445   7.659
 1543SSM    OH118822   9.827   6.597   7.325
 1543SSM    AM218823  10.127   6.677   7.265
 1543SSM    T1A18824   9.761   6.669   6.983
 1543SSM    C2A18825   9.887   6.874   6.643
 1543SSM    C3A18826  10.113   6.903   6.207
 1543SSM    C4A18827  10.093   6.760   5.754
 1543SSM    C1B18828  10.235   6.694   6.880
 1543SSM    C2B18829  10.542   6.683   6.427
 1543SSM    C3B18830  10.695   6.767   5.976
 1543SSM    C4B18831  11.067   6.892   5.703
 1544SSM    NC318832   1.074  32.279   7.525
 1544SSM    PO418833   0.896  32.579   7.666
 1544SSM    OH118834   0.683  32.588   7.359
 1544SSM    AM218835   0.940  32.584   7.205
 1544SSM    T1A18836   0.497  32.607   7.065
 1544SSM    C2A18837   0.319  32.771   6.737
 1544SSM    C3A18838   0.247  32.873   6.283
 1544SSM    C4A18839   0.282  32.728   5.893
 1544SSM    C1B18840   1.172  32.308   6.937
 1544SSM    C2B18841   1.494  32.149   6.514
 1544SSM    C3B18842   1.637  32.297   6.090
 1544SSM    C4B18843   1.762  32.207   5.622
 1545SSM    NC318844  29.559  10.747   7.586
 1545SSM    PO418845  29.912  10.923   7.474
 1545SSM    OH118846  29.967  10.802   7.135
 1545SSM    AM218847  29.734  10.600   7.143
 1545SSM    T1A18848  29.944  10.735   6.784
 1545SSM    C2A18849  29.755  10.608   6.484
 1545SSM    C3A18850  29.573  10.443   6.071
 1545SSM    C4A18851  29.367  10.341   5.592
 1545SSM    C1B18852  29.674  10.343   6.897
 1545SSM    C2B18853  29.686  10.096   6.575
 1545SSM    C3B18854  29.650   9.964   6.157
 1545SSM    C4B18855  29.621   9.887   5.728
 1546SSM    NC318856  20.231  25.149   7.614
 1546SSM    PO418857  20.333  24.749   7.746
 1546SSM    OH118858  20.575  24.732   7.468
 1546SSM    AM218859  20.409  24.494   7.362
 1546SSM    T1A18860  20.816  24.649   7.233
 1546SSM    C2A18861  20.803  24.544   6.840
 1546SSM    C3A18862  20.751  24.465   6.376
 1546SSM    C4A18863  20.913  24.360   5.903
 1546SSM    C1B18864  20.416  24.204   7.174
 1546SSM    C2B18865  20.345  24.072   6.647
 1546SSM    C3B18866  20.519  24.052   6.153
 1546SSM    C4B18867  20.856  23.857   5.780
 1547SSM    NC318868   0.035  14.855   8.164
 1547SSM    PO418869  -0.205  14.874   7.859
 1547SSM    OH118870  -0.166  15.205   7.586
 1547SSM    AM218871  -0.101  14.983   7.388
 1547SSM    T1A18872  -0.211  15.384   7.331
 1547SSM    C2A18873  -0.081  15.456   6.937
 1547SSM    C3A18874   0.051  15.507   6.444
 1547SSM    C4A18875  -0.216  15.749   6.110
 1547SSM    C1B18876  -0.005  14.903   6.988
 1547SSM    C2B18877   0.032  14.711   6.477
 1547SSM    C3B18878   0.324  14.894   6.100
 1547SSM    C4B18879   0.654  14.798   5.837
 1548SSM    NC318880   6.148  24.167   7.580
 1548SSM    PO418881   6.429  23.936   7.635
 1548SSM    OH118882   6.422  23.627   7.469
 1548SSM    AM218883   6.537  23.729   7.213
 1548SSM    T1A18884   6.319  23.386   7.224
 1548SSM    C2A18885   6.184  23.168   6.902
 1548SSM    C3A18886   6.079  22.896   6.533
 1548SSM    C4A18887   5.976  22.549   6.206
 1548SSM    C1B18888   6.551  23.729   6.780
 1548SSM    C2B18889   6.639  23.870   6.287
 1548SSM    C3B18890   6.546  23.783   5.861
 1548SSM    C4B18891   6.480  23.900   5.388
 1549SSM    NC318892  34.221  22.894   7.990
 1549SSM    PO418893  34.573  23.089   8.001
 1549SSM    OH118894  34.808  23.286   7.811
 1549SSM    AM218895  34.873  23.047   7.627
 1549SSM    T1A18896  34.861  23.450   7.522
 1549SSM    C2A18897  35.158  23.683   7.410
 1549SSM    C3A18898  35.195  24.082   7.560
 1549SSM    C4A18899  35.400  24.548   7.651
 1549SSM    C1B18900  34.970  22.937   7.220
 1549SSM    C2B18901  35.149  22.974   6.715
 1549SSM    C3B18902  35.169  23.012   6.179
 1549SSM    C4B18903  35.166  23.224   5.740
 1550SSM    NC318904   8.776  22.139   6.978
 1550SSM    PO418905   9.026  21.838   7.006
 1550SSM    OH118906   8.851  21.747   6.725
 1550SSM    AM218907   9.029  21.501   6.634
 1550SSM    T1A18908   8.742  21.755   6.421
 1550SSM    C2A18909   8.792  21.761   6.026
 1550SSM    C3A18910   8.995  21.646   5.628
 1550SSM    C4A18911   8.988  21.481   5.129
 1550SSM    C1B18912   9.405  21.391   6.442
 1550SSM    C2B18913   9.663  21.130   6.050
 1550SSM    C3B18914   9.777  21.043   5.637
 1550SSM    C4B18915   9.822  20.987   5.162
 1551SSM    NC318916  10.761  24.973   6.608
 1551SSM    PO418917  10.459  24.768   6.705
 1551SSM    OH118918  10.391  24.486   6.451
 1551SSM    AM218919  10.542  24.644   6.252
 1551SSM    T1A18920  10.126  24.417   6.257
 1551SSM    C2A18921  10.180  24.344   5.821
 1551SSM    C3A18922  10.558  24.362   5.461
 1551SSM    C4A18923  10.776  24.451   5.003
 1551SSM    C1B18924  10.680  24.700   5.908
 1551SSM    C2B18925  10.949  24.691   5.377
 1551SSM    C3B18926  11.047  24.937   4.951
 1551SSM    C4B18927  11.206  25.232   4.584
 1552SSM    NC318928  32.036  34.111   7.548
 1552SSM    PO418929  32.400  34.274   7.408
 1552SSM    OH118930  32.625  34.165   7.176
 1552SSM    AM218931  32.465  34.215   6.923
 1552SSM    T1A18932  32.750  33.896   6.992
 1552SSM    C2A18933  32.954  34.027   6.700
 1552SSM    C3A18934  33.008  34.197   6.180
 1552SSM    C4A18935  33.002  34.241   5.709
 1552SSM    C1B18936  32.476  34.070   6.485
 1552SSM    C2B18937  32.515  34.064   5.998
 1552SSM    C3B18938  32.351  34.120   5.568
 1552SSM    C4B18939  32.049  34.262   5.150
 1553SSM    NC318940   1.362   1.975   7.169
 1553SSM    PO418941   1.633   2.245   7.190
 1553SSM    OH118942   1.841   2.190   6.840
 1553SSM    AM218943   1.654   1.938   6.829
 1553SSM    T1A18944   1.912   2.059   6.515
 1553SSM    C2A18945   1.907   2.057   6.148
 1553SSM    C3A18946   1.956   1.966   5.725
 1553SSM    C4A18947   1.942   1.964   5.261
 1553SSM    C1B18948   1.497   1.759   6.559
 1553SSM    C2B18949   1.632   1.542   6.102
 1553SSM    C3B18950   1.535   1.345   5.655
 1553SSM    C4B18951   1.592   1.564   5.177
 1554SSM    NC318952  26.362   2.654   7.486
 1554SSM    PO418953  26.680   2.856   7.670
 1554SSM    OH118954  26.843   2.912   7.401
 1554SSM    AM218955  26.675   3.085   7.227
 1554SSM    T1A18956  27.060   2.786   7.156
 1554SSM    C2A18957  26.995   2.913   6.783
 1554SSM    C3A18958  26.774   3.211   6.446
 1554SSM    C4A18959  26.653   3.490   6.082
 1554SSM    C1B18960  26.419   3.268   6.979
 1554SSM    C2B18961  26.346   3.417   6.506
 1554SSM    C3B18962  26.099   3.573   6.120
 1554SSM    C4B18963  25.906   3.386   5.702
 1555SSM    NC318964  27.598   8.991   8.174
 1555SSM    PO418965  27.610   9.351   7.982
 1555SSM    OH118966  27.617   9.436   7.622
 1555SSM    AM218967  27.342   9.336   7.530
 1555SSM    T1A18968  27.677   9.535   7.292
 1555SSM    C2A18969  27.371   9.648   6.997
 1555SSM    C3A18970  27.414   9.703   6.548
 1555SSM    C4A18971  27.308   9.756   6.064
 1555SSM    C1B18972  27.133   9.381   7.297
 1555SSM    C2B18973  26.840   9.520   6.854
 1555SSM    C3B18974  26.606   9.863   6.700
 1555SSM    C4B18975  26.484  10.104   6.299
 1556SSM    NC318976  31.778  10.673   7.417
 1556SSM    PO418977  31.399  10.809   7.268
 1556SSM    OH118978  31.290  10.861   6.943
 1556SSM    AM218979  31.253  11.162   6.910
 1556SSM    T1A18980  31.233  10.849   6.591
 1556SSM    C2A18981  31.298  11.014   6.242
 1556SSM    C3A18982  31.093  11.370   6.069
 1556SSM    C4A18983  31.067  11.832   5.950
 1556SSM    C1B18984  31.149  11.357   6.606
 1556SSM    C2B18985  30.753  11.581   6.309
 1556SSM    C3B18986  30.400  11.710   6.000
 1556SSM    C4B18987  30.112  11.682   5.662
 1557SSM    NC318988   8.324   2.737   7.169
 1557SSM    PO418989   8.705   2.785   7.169
 1557SSM    OH118990   8.875   2.873   6.880
 1557SSM    AM218991   8.626   3.060   6.759
 1557SSM    T1A18992   8.880   2.812   6.543
 1557SSM    C2A18993   8.874   2.824   6.125
 1557SSM    C3A18994   8.802   2.677   5.637
 1557SSM    C4A18995   9.033   2.465   5.227
 1557SSM    C1B18996   8.599   3.140   6.358
 1557SSM    C2B18997   8.499   3.009   5.829
 1557SSM    C3B18998   8.381   2.982   5.349
 1557SSM    C4B18999   8.180   3.198   4.923
 1558SSM    NC319000  16.276  27.697   7.885
 1558SSM    PO419001  16.491  27.941   7.633
 1558SSM    OH119002  16.358  28.011   7.290
 1558SSM    AM219003  16.609  28.063   7.144
 1558SSM    T1A19004  16.222  27.831   7.032
 1558SSM    C2A19005  16.141  27.790   6.627
 1558SSM    C3A19006  16.040  27.657   6.173
 1558SSM    C4A19007  16.086  27.627   5.675
 1558SSM    C1B19008  16.637  27.993   6.732
 1558SSM    C2B19009  16.588  27.915   6.304
 1558SSM    C3B19010  16.370  28.051   5.936
 1558SSM    C4B19011  15.889  28.165   5.750
 1559SSM    NC319012  31.963  14.747   7.679
 1559SSM    PO419013  32.162  14.418   7.698
 1559SSM    OH119014  32.206  14.199   7.422
 1559SSM    AM219015  32.134  14.413   7.204
 1559SSM    T1A19016  32.223  13.953   7.184
 1559SSM    C2A19017  32.211  13.782   6.882
 1559SSM    C3A19018  32.227  13.591   6.435
 1559SSM    C4A19019  32.242  13.310   6.048
 1559SSM    C1B19020  31.927  14.616   6.930
 1559SSM    C2B19021  31.547  14.931   6.698
 1559SSM    C3B19022  31.385  14.902   6.175
 1559SSM    C4B19023  31.377  15.135   5.752
 1560SSM    NC319024  25.286  25.033   7.457
 1560SSM    PO419025  25.109  24.653   7.530
 1560SSM    OH119026  24.807  24.485   7.335
 1560SSM    AM219027  24.968  24.230   7.297
 1560SSM    T1A19028  24.597  24.348   7.093
 1560SSM    C2A19029  24.567  24.147   6.732
 1560SSM    C3A19030  24.617  23.955   6.294
 1560SSM    C4A19031  24.686  23.892   5.793
 1560SSM    C1B19032  25.240  24.054   7.069
 1560SSM    C2B19033  25.466  23.977   6.620
 1560SSM    C3B19034  25.605  23.856   6.190
 1560SSM    C4B19035  25.662  23.542   5.770
 1561SSM    NC319036   5.456   7.934   7.334
 1561SSM    PO419037   5.190   8.186   7.505
 1561SSM    OH119038   5.118   8.319   7.176
 1561SSM    AM219039   4.839   8.211   7.113
 1561SSM    T1A19040   5.097   8.590   6.983
 1561SSM    C2A19041   4.775   8.607   6.776
 1561SSM    C3A19042   4.430   8.824   6.454
 1561SSM    C4A19043   4.166   9.141   6.267
 1561SSM    C1B19044   4.645   8.109   6.774
 1561SSM    C2B19045   4.544   7.914   6.314
 1561SSM    C3B19046   4.848   7.870   5.921
 1561SSM    C4B19047   5.062   7.520   5.729
 1562SSM    NC319048  25.471  30.867   7.259
 1562SSM    PO419049  25.534  30.484   7.227
 1562SSM    OH119050  25.767  30.494   6.928
 1562SSM    AM219051  25.697  30.783   6.833
 1562SSM    T1A19052  25.890  30.449   6.620
 1562SSM    C2A19053  25.852  30.489   6.226
 1562SSM    C3A19054  25.771  30.626   5.754
 1562SSM    C4A19055  25.716  30.581   5.249
 1562SSM    C1B19056  25.784  30.952   6.452
 1562SSM    C2B19057  25.860  31.077   5.848
 1562SSM    C3B19058  25.690  31.179   5.481
 1562SSM    C4B19059  25.562  31.286   5.024
 1563SSM    NC319060  11.192  21.716   7.074
 1563SSM    PO419061  11.473  21.485   7.172
 1563SSM    OH119062  11.422  21.401   6.809
 1563SSM    AM219063  11.687  21.540   6.742
 1563SSM    T1A19064  11.387  21.338   6.465
 1563SSM    C2A19065  11.471  21.239   6.064
 1563SSM    C3A19066  11.454  21.249   5.611
 1563SSM    C4A19067  11.120  21.209   5.294
 1563SSM    C1B19068  11.841  21.566   6.367
 1563SSM    C2B19069  11.851  21.521   5.875
 1563SSM    C3B19070  11.848  21.444   5.402
 1563SSM    C4B19071  11.910  21.258   4.890
 1564SSM    NC319072  29.481   8.459   7.287
 1564SSM    PO419073  29.691   8.782   7.179
 1564SSM    OH119074  29.370   8.959   7.052
 1564SSM    AM219075  29.368   8.732   6.860
 1564SSM    T1A19076  29.119   9.113   6.882
 1564SSM    C2A19077  29.033   9.020   6.543
 1564SSM    C3A19078  29.013   8.930   6.077
 1564SSM    C4A19079  28.975   8.822   5.533
 1564SSM    C1B19080  29.336   8.594   6.465
 1564SSM    C2B19081  29.287   8.429   5.999
 1564SSM    C3B19082  29.265   8.443   5.521
 1564SSM    C4B19083  29.462   8.195   5.115
 1565SSM    NC319084  25.114  25.855   7.250
 1565SSM    PO419085  24.771  25.689   7.280
 1565SSM    OH119086  24.638  25.736   6.970
 1565SSM    AM219087  24.886  25.815   6.813
 1565SSM    T1A19088  24.559  25.600   6.676
 1565SSM    C2A19089  24.706  25.455   6.315
 1565SSM    C3A19090  24.621  25.762   5.876
 1565SSM    C4A19091  24.757  25.745   5.389
 1565SSM    C1B19092  25.151  25.610   6.473
 1565SSM    C2B19093  25.133  25.524   5.976
 1565SSM    C3B19094  25.118  25.433   5.516
 1565SSM    C4B19095  24.928  25.471   5.056
 1566SSM    NC319096  35.527   7.867   7.683
 1566SSM    PO419097  35.891   7.995   7.637
 1566SSM    OH119098  36.115   7.972   7.353
 1566SSM    AM219099  36.060   7.703   7.238
 1566SSM    T1A19100  36.243   8.095   7.089
 1566SSM    C2A19101  36.461   8.266   6.834
 1566SSM    C3A19102  36.454   8.449   6.333
 1566SSM    C4A19103  36.839   8.298   6.075
 1566SSM    C1B19104  36.105   7.532   6.946
 1566SSM    C2B19105  36.025   7.897   6.617
 1566SSM    C3B19106  35.979   8.225   6.305
 1566SSM    C4B19107  36.128   8.497   5.924
 1567SSM    NC319108  34.840  25.114   8.094
 1567SSM    PO419109  34.763  24.751   8.063
 1567SSM    OH119110  34.897  24.661   7.758
 1567SSM    AM219111  34.768  24.859   7.563
 1567SSM    T1A19112  34.905  24.502   7.463
 1567SSM    C2A19113  35.099  24.464   7.136
 1567SSM    C3A19114  35.066  24.413   6.651
 1567SSM    C4A19115  34.902  24.305   6.196
 1567SSM    C1B19116  34.635  24.733   7.143
 1567SSM    C2B19117  34.585  24.545   6.654
 1567SSM    C3B19118  34.560  24.756   6.172
 1567SSM    C4B19119  34.611  24.852   5.614
 1568SSM    NC319120   9.580  24.353   7.003
 1568SSM    PO419121   9.636  24.739   6.889
 1568SSM    OH119122   9.661  24.878   6.535
 1568SSM    AM219123   9.693  24.620   6.394
 1568SSM    T1A19124   9.546  25.007   6.205
 1568SSM    C2A19125   9.587  24.970   5.833
 1568SSM    C3A19126   9.546  25.147   5.375
 1568SSM    C4A19127   9.513  25.240   4.848
 1568SSM    C1B19128   9.722  24.459   6.017
 1568SSM    C2B19129   9.627  24.575   5.573
 1568SSM    C3B19130   9.602  24.730   5.078
 1568SSM    C4B19131   9.617  24.671   4.567
 1569SSM    NC319132  25.831  26.982   7.853
 1569SSM    PO419133  25.879  27.115   7.488
 1569SSM    OH119134  25.842  27.210   7.108
 1569SSM    AM219135  25.654  26.950   7.084
 1569SSM    T1A19136  25.857  27.139   6.760
 1569SSM    C2A19137  25.824  27.061   6.382
 1569SSM    C3A19138  25.823  26.945   5.935
 1569SSM    C4A19139  25.593  27.028   5.504
 1569SSM    C1B19140  25.514  26.714   6.826
 1569SSM    C2B19141  25.383  26.633   6.345
 1569SSM    C3B19142  25.444  26.640   5.872
 1569SSM    C4B19143  25.328  26.502   5.394
 1570SSM    NC319144  21.466  33.829   7.968
 1570SSM    PO419145  21.633  33.621   7.656
 1570SSM    OH119146  21.794  33.618   7.288
 1570SSM    AM219147  21.646  33.381   7.224
 1570SSM    T1A19148  21.877  33.640   6.943
 1570SSM    C2A19149  22.009  33.945   6.700
 1570SSM    C3A19150  21.965  33.983   6.247
 1570SSM    C4A19151  21.934  34.063   5.759
 1570SSM    C1B19152  21.523  33.263   6.873
 1570SSM    C2B19153  21.316  33.120   6.421
 1570SSM    C3B19154  21.003  33.061   5.988
 1570SSM    C4B19155  20.862  32.982   5.554
 1571SSM    NC319156  12.580  14.287   7.009
 1571SSM    PO419157  12.602  14.565   7.338
 1571SSM    OH119158  12.960  14.678   7.239
 1571SSM    AM219159  13.012  14.453   7.035
 1571SSM    T1A19160  12.983  14.902   6.986
 1571SSM    C2A19161  12.990  14.876   6.615
 1571SSM    C3A19162  12.824  14.922   6.146
 1571SSM    C4A19163  12.838  14.853   5.691
 1571SSM    C1B19164  12.960  14.345   6.688
 1571SSM    C2B19165  12.837  14.426   6.232
 1571SSM    C3B19166  12.607  14.458   5.835
 1571SSM    C4B19167  12.327  14.185   5.550
 1572SSM    NC319168  25.645  16.868   8.115
 1572SSM    PO419169  25.376  16.895   7.788
 1572SSM    OH119170  25.227  16.663   7.513
 1572SSM    AM219171  25.279  16.885   7.304
 1572SSM    T1A19172  24.980  16.562   7.271
 1572SSM    C2A19173  24.756  16.514   6.931
 1572SSM    C3A19174  24.397  16.211   6.835
 1572SSM    C4A19175  23.943  16.101   6.916
 1572SSM    C1B19176  25.330  17.000   6.905
 1572SSM    C2B19177  25.445  17.149   6.409
 1572SSM    C3B19178  25.608  17.246   5.965
 1572SSM    C4B19179  25.859  17.147   5.500
 1573SSM    NC319180   6.066  21.028   7.560
 1573SSM    PO419181   5.854  20.728   7.453
 1573SSM    OH119182   5.947  20.736   7.090
 1573SSM    AM219183   5.755  20.534   7.026
 1573SSM    T1A19184   5.966  20.692   6.740
 1573SSM    C2A19185   5.991  21.007   6.416
 1573SSM    C3A19186   5.877  21.231   6.058
 1573SSM    C4A19187   5.726  21.660   5.836
 1573SSM    C1B19188   5.588  20.418   6.729
 1573SSM    C2B19189   5.307  20.225   6.311
 1573SSM    C3B19190   5.063  20.181   5.815
 1573SSM    C4B19191   5.011  20.169   5.337
 1574SSM    NC319192  15.057  10.524   7.859
 1574SSM    PO419193  14.861  10.839   7.654
 1574SSM    OH119194  14.904  11.048   7.364
 1574SSM    AM219195  15.031  10.826   7.173
 1574SSM    T1A19196  14.769  11.159   7.048
 1574SSM    C2A19197  14.701  11.290   6.680
 1574SSM    C3A19198  14.575  11.431   6.269
 1574SSM    C4A19199  14.857  11.560   5.865
 1574SSM    C1B19200  14.917  10.702   6.838
 1574SSM    C2B19201  14.880  10.475   6.296
 1574SSM    C3B19202  14.927  10.273   5.851
 1574SSM    C4B19203  14.691  10.124   5.440
 1575SSM    NC319204  32.983   8.132   7.441
 1575SSM    PO419205  33.300   7.918   7.311
 1575SSM    OH119206  33.354   7.796   6.928
 1575SSM    AM219207  33.077   7.744   6.929
 1575SSM    T1A19208  33.454   7.676   6.641
 1575SSM    C2A19209  33.455   7.538   6.275
 1575SSM    C3A19210  33.591   7.397   5.852
 1575SSM    C4A19211  33.692   7.363   5.339
 1575SSM    C1B19212  32.775   7.824   6.689
 1575SSM    C2B19213  32.749   7.802   6.165
 1575SSM    C3B19214  32.901   7.881   5.739
 1575SSM    C4B19215  32.843   7.751   5.249
 1576SSM    NC319216  27.442   7.171   7.601
 1576SSM    PO419217  27.638   7.439   7.366
 1576SSM    OH119218  27.596   7.272   7.054
 1576SSM    AM219219  27.729   7.502   6.882
 1576SSM    T1A19220  27.528   7.188   6.722
 1576SSM    C2A19221  27.543   7.168   6.325
 1576SSM    C3A19222  27.633   7.150   5.876
 1576SSM    C4A19223  27.764   7.171   5.392
 1576SSM    C1B19224  27.797   7.698   6.619
 1576SSM    C2B19225  27.780   7.675   6.161
 1576SSM    C3B19226  27.833   7.626   5.654
 1576SSM    C4B19227  27.975   7.685   5.192
 1577SSM    NC319228  27.267  30.357   7.217
 1577SSM    PO419229  27.525  30.078   7.028
 1577SSM    OH119230  27.496  29.858   6.708
 1577SSM    AM219231  27.763  29.979   6.613
 1577SSM    T1A19232  27.463  29.770   6.356
 1577SSM    C2A19233  27.457  29.751   5.975
 1577SSM    C3A19234  27.501  29.948   5.524
 1577SSM    C4A19235  27.596  30.028   5.027
 1577SSM    C1B19236  28.013  30.062   6.335
 1577SSM    C2B19237  28.248  30.030   5.815
 1577SSM    C3B19238  28.480  30.225   5.436
 1577SSM    C4B19239  28.828  30.348   5.132
 1578SSM    NC319240   9.773  24.157   6.600
 1578SSM    PO419241   9.467  23.976   6.720
 1578SSM    OH119242   9.250  23.881   6.403
 1578SSM    AM219243   9.314  24.154   6.286
 1578SSM    T1A19244   9.134  23.819   6.081
 1578SSM    C2A19245   9.066  23.883   5.646
 1578SSM    C3A19246   8.807  24.095   5.275
 1578SSM    C4A19247   8.769  24.078   4.808
 1578SSM    C1B19248   9.291  24.227   5.881
 1578SSM    C2B19249   9.233  24.323   5.445
 1578SSM    C3B19250   9.095  24.469   5.018
 1578SSM    C4B19251   8.827  24.541   4.581
 1579SSM    NC319252   5.824  16.819   7.344
 1579SSM    PO419253   6.121  16.630   7.499
 1579SSM    OH119254   6.273  16.488   7.198
 1579SSM    AM219255   6.062  16.300   7.162
 1579SSM    T1A19256   6.286  16.460   6.866
 1579SSM    C2A19257   6.199  16.245   6.542
 1579SSM    C3A19258   6.181  15.966   6.171
 1579SSM    C4A19259   6.436  15.651   5.935
 1579SSM    C1B19260   5.873  16.019   6.941
 1579SSM    C2B19261   5.778  15.851   6.481
 1579SSM    C3B19262   5.684  15.784   5.985
 1579SSM    C4B19263   5.914  15.580   5.647
 1580SSM    NC319264  33.543  27.602   7.438
 1580SSM    PO419265  33.221  27.359   7.497
 1580SSM    OH119266  33.301  27.008   7.314
 1580SSM    AM219267  33.028  26.983   7.180
 1580SSM    T1A19268  33.417  26.855   7.038
 1580SSM    C2A19269  33.670  26.926   6.706
 1580SSM    C3A19270  33.556  27.287   6.373
 1580SSM    C4A19271  33.368  27.500   5.957
 1580SSM    C1B19272  32.816  27.131   6.930
 1580SSM    C2B19273  32.826  27.257   6.437
 1580SSM    C3B19274  32.831  27.437   6.030
 1580SSM    C4B19275  32.564  27.705   5.677
 1581SSM    NC319276  34.264  14.193   7.585
 1581SSM    PO419277  34.466  13.813   7.709
 1581SSM    OH119278  34.626  13.738   7.359
 1581SSM    AM219279  34.401  13.932   7.250
 1581SSM    T1A19280  34.695  13.726   7.033
 1581SSM    C2A19281  34.761  13.713   6.644
 1581SSM    C3A19282  35.014  13.714   6.226
 1581SSM    C4A19283  35.213  13.855   5.810
 1581SSM    C1B19284  34.312  14.110   6.837
 1581SSM    C2B19285  34.334  14.347   6.398
 1581SSM    C3B19286  34.368  14.717   6.048
 1581SSM    C4B19287  34.450  15.246   5.905
 1582SSM    NC319288  10.698   3.013   7.347
 1582SSM    PO419289  10.785   3.154   7.021
 1582SSM    OH119290  10.556   3.213   6.763
 1582SSM    AM219291  10.626   2.944   6.615
 1582SSM    T1A19292  10.286   3.219   6.559
 1582SSM    C2A19293  10.136   3.192   6.162
 1582SSM    C3A19294  10.345   3.023   5.701
 1582SSM    C4A19295  10.471   2.807   5.229
 1582SSM    C1B19296  10.632   2.942   6.283
 1582SSM    C2B19297  10.825   2.780   5.803
 1582SSM    C3B19298  10.932   2.566   5.390
 1582SSM    C4B19299  10.826   2.442   4.912
 1583SSM    NC319300  27.440  33.425   6.795
 1583SSM    PO419301  27.283  33.130   7.031
 1583SSM    OH119302  27.192  32.896   6.765
 1583SSM    AM219303  27.365  33.029   6.547
 1583SSM    T1A19304  27.047  32.728   6.528
 1583SSM    C2A19305  27.013  32.719   6.091
 1583SSM    C3A19306  27.219  32.933   5.673
 1583SSM    C4A19307  27.192  33.163   5.232
 1583SSM    C1B19308  27.308  33.227   6.133
 1583SSM    C2B19309  27.127  33.436   5.688
 1583SSM    C3B19310  26.839  33.507   5.352
 1583SSM    C4B19311  26.560  33.683   4.914
 1584SSM    NC319312  10.966  14.805   7.329
 1584SSM    PO419313  10.758  14.611   7.636
 1584SSM    OH119314  10.471  14.502   7.430
 1584SSM    AM219315  10.585  14.602   7.168
 1584SSM    T1A19316  10.213  14.402   7.221
 1584SSM    C2A19317  10.033  14.363   6.885
 1584SSM    C3A19318  10.060  14.311   6.406
 1584SSM    C4A19319  10.176  14.115   5.931
 1584SSM    C1B19320  10.891  14.602   6.922
 1584SSM    C2B19321  11.380  14.377   7.093
 1584SSM    C3B19322  11.654  14.021   7.091
 1584SSM    C4B19323  11.367  13.613   6.881
 1585SSM    NC319324  35.002   2.943   7.261
 1585SSM    PO419325  34.737   3.224   7.309
 1585SSM    OH119326  34.647   3.343   6.978
 1585SSM    AM219327  34.686   3.637   7.005
 1585SSM    T1A19328  34.610   3.409   6.645
 1585SSM    C2A19329  34.638   3.649   6.324
 1585SSM    C3A19330  34.753   3.884   5.919
 1585SSM    C4A19331  34.916   3.990   5.459
 1585SSM    C1B19332  34.852   3.831   6.788
 1585SSM    C2B19333  34.888   4.066   6.353
 1585SSM    C3B19334  34.919   4.318   5.998
 1585SSM    C4B19335  34.934   4.503   5.516
 1586SSM    NC319336   5.899  33.196   7.342
 1586SSM    PO419337   5.964  32.802   7.294
 1586SSM    OH119338   6.162  32.754   6.986
 1586SSM    AM219339   6.129  32.448   7.012
 1586SSM    T1A19340   6.326  32.630   6.721
 1586SSM    C2A19341   6.392  32.572   6.358
 1586SSM    C3A19342   6.295  32.578   5.910
 1586SSM    C4A19343   6.388  32.607   5.484
 1586SSM    C1B19344   6.066  32.264   6.757
 1586SSM    C2B19345   5.857  32.138   6.330
 1586SSM    C3B19346   5.681  31.990   5.905
 1586SSM    C4B19347   5.590  31.857   5.452
 1587SSM    NC319348  24.428  30.631   7.279
 1587SSM    PO419349  24.144  30.427   7.131
 1587SSM    OH119350  24.218  30.179   6.874
 1587SSM    AM219351  23.949  30.209   6.726
 1587SSM    T1A19352  24.340  29.958   6.645
 1587SSM    C2A19353  24.419  29.777   6.276
 1587SSM    C3A19354  24.393  29.718   5.823
 1587SSM    C4A19355  24.372  29.562   5.449
 1587SSM    C1B19356  23.770  30.256   6.359
 1587SSM    C2B19357  23.634  30.242   5.860
 1587SSM    C3B19358  23.460  30.275   5.422
 1587SSM    C4B19359  23.473  29.884   5.055
 1588SSM    NC319360  32.090   8.826   6.997
 1588SSM    PO419361  32.430   8.895   7.145
 1588SSM    OH119362  32.633   8.741   6.865
 1588SSM    AM219363  32.587   8.927   6.618
 1588SSM    T1A19364  32.667   8.483   6.664
 1588SSM    C2A19365  32.718   8.373   6.283
 1588SSM    C3A19366  32.654   8.526   5.842
 1588SSM    C4A19367  32.678   8.677   5.349
 1588SSM    C1B19368  32.763   9.024   6.196
 1588SSM    C2B19369  32.729   9.130   5.747
 1588SSM    C3B19370  32.668   9.161   5.251
 1588SSM    C4B19371  32.710   9.107   4.822
 1589SSM    NC319372  29.036  14.264   7.970
 1589SSM    PO419373  29.163  14.435   7.636
 1589SSM    OH119374  29.094  14.423   7.256
 1589SSM    AM219375  29.347  14.283   7.190
 1589SSM    T1A19376  29.080  14.434   6.894
 1589SSM    C2A19377  29.166  14.386   6.522
 1589SSM    C3A19378  29.271  14.368   6.031
 1589SSM    C4A19379  29.170  14.557   5.558
 1589SSM    C1B19380  29.545  14.239   6.855
 1589SSM    C2B19381  29.675  14.257   6.353
 1589SSM    C3B19382  29.760  14.213   5.859
 1589SSM    C4B19383  29.603  14.322   5.407
 1590SSM    NC319384  15.128   7.076   7.540
 1590SSM    PO419385  15.473   6.891   7.576
 1590SSM    OH119386  15.568   6.885   7.250
 1590SSM    AM219387  15.300   7.017   7.126
 1590SSM    T1A19388  15.750   6.835   6.965
 1590SSM    C2A19389  15.817   6.865   6.558
 1590SSM    C3A19390  15.768   6.870   6.057
 1590SSM    C4A19391  15.512   6.983   5.730
 1590SSM    C1B19392  15.292   7.058   6.707
 1590SSM    C2B19393  15.259   7.149   6.155
 1590SSM    C3B19394  15.416   7.453   5.798
 1590SSM    C4B19395  15.822   7.557   5.405
 1591SSM    NC319396  28.905  34.163   7.542
 1591SSM    PO419397  28.832  34.498   7.344
 1591SSM    OH119398  28.776  34.573   6.955
 1591SSM    AM219399  28.526  34.729   7.005
 1591SSM    T1A19400  28.817  34.698   6.641
 1591SSM    C2A19401  28.879  34.851   6.291
 1591SSM    C3A19402  28.821  35.225   6.006
 1591SSM    C4A19403  28.762  35.561   5.641
 1591SSM    C1B19404  28.375  34.838   6.679
 1591SSM    C2B19405  28.272  35.023   6.255
 1591SSM    C3B19406  28.184  34.942   5.759
 1591SSM    C4B19407  28.110  34.787   5.264
 1592SSM    NC319408  35.296  27.708   7.238
 1592SSM    PO419409  35.420  27.476   7.520
 1592SSM    OH119410  35.680  27.343   7.349
 1592SSM    AM219411  35.597  27.377   7.054
 1592SSM    T1A19412  35.959  27.213   7.197
 1592SSM    C2A19413  36.186  27.098   6.909
 1592SSM    C3A19414  36.255  27.057   6.478
 1592SSM    C4A19415  36.438  26.911   6.106
 1592SSM    C1B19416  35.633  27.166   6.780
 1592SSM    C2B19417  35.561  27.042   6.288
 1592SSM    C3B19418  35.330  27.216   5.904
 1592SSM    C4B19419  34.997  27.240   5.625
 1593SSM    NC319420  18.397  34.456   7.817
 1593SSM    PO419421  18.750  34.523   7.641
 1593SSM    OH119422  18.703  34.244   7.439
 1593SSM    AM219423  18.441  34.313   7.269
 1593SSM    T1A19424  18.760  34.102   7.118
 1593SSM    C2A19425  18.671  33.908   6.766
 1593SSM    C3A19426  18.490  33.918   6.298
 1593SSM    C4A19427  18.472  33.921   5.866
 1593SSM    C1B19428  18.269  34.296   6.939
 1593SSM    C2B19429  18.163  34.173   6.504
 1593SSM    C3B19430  18.045  34.095   6.039
 1593SSM    C4B19431  18.076  34.175   5.591
 1594SSM    NC319432  15.168  21.795   8.139
 1594SSM    PO419433  15.325  22.096   7.902
 1594SSM    OH119434  15.421  22.063   7.560
 1594SSM    AM219435  15.681  22.209   7.570
 1594SSM    T1A19436  15.454  22.038   7.211
 1594SSM    C2A19437  15.630  22.166   6.844
 1594SSM    C3A19438  15.790  22.239   6.427
 1594SSM    C4A19439  15.651  22.435   6.057
 1594SSM    C1B19440  15.816  22.400   7.247
 1594SSM    C2B19441  15.892  22.711   6.835
 1594SSM    C3B19442  16.010  22.708   6.371
 1594SSM    C4B19443  16.336  22.684   6.025
 1595SSM    NC319444   6.752  27.068   7.308
 1595SSM    PO419445   7.097  27.265   7.434
 1595SSM    OH119446   7.144  27.267   7.069
 1595SSM    AM219447   6.958  27.488   6.998
 1595SSM    T1A19448   7.237  27.270   6.708
 1595SSM    C2A19449   7.223  26.986   6.434
 1595SSM    C3A19450   7.050  27.006   5.928
 1595SSM    C4A19451   6.978  27.021   5.446
 1595SSM    C1B19452   6.589  27.660   6.834
 1595SSM    C2B19453   6.306  27.825   6.456
 1595SSM    C3B19454   5.991  27.907   6.122
 1595SSM    C4B19455   5.675  27.993   5.745
 1596SSM    NC319456  31.686   5.204   7.645
 1596SSM    PO419457  31.884   5.515   7.667
 1596SSM    OH119458  31.978   5.545   7.320
 1596SSM    AM219459  31.671   5.607   7.272
 1596SSM    T1A19460  31.976   5.662   7.009
 1596SSM    C2A19461  31.842   5.709   6.636
 1596SSM    C3A19462  31.783   5.817   6.151
 1596SSM    C4A19463  31.803   5.886   5.689
 1596SSM    C1B19464  31.386   5.676   7.005
 1596SSM    C2B19465  31.258   5.744   6.492
 1596SSM    C3B19466  31.311   5.764   6.007
 1596SSM    C4B19467  31.093   6.060   5.675
 1597SSM    NC319468  28.318  11.460   8.281
 1597SSM    PO419469  28.526  11.365   7.926
 1597SSM    OH119470  28.284  11.525   7.659
 1597SSM    AM219471  28.216  11.256   7.586
 1597SSM    T1A19472  28.267  11.659   7.345
 1597SSM    C2A19473  28.192  11.672   6.925
 1597SSM    C3A19474  28.140  11.649   6.499
 1597SSM    C4A19475  28.121  11.708   5.952
 1597SSM    C1B19476  28.187  10.990   7.220
 1597SSM    C2B19477  28.095  10.970   6.730
 1597SSM    C3B19478  28.029  11.017   6.253
 1597SSM    C4B19479  28.138  10.848   5.749
 1598SSM    NC319480   0.613  24.935   8.225
 1598SSM    PO419481   0.734  25.298   8.042
 1598SSM    OH119482   0.905  25.232   7.729
 1598SSM    AM219483   0.641  25.123   7.631
 1598SSM    T1A19484   0.934  25.253   7.373
 1598SSM    C2A19485   0.950  25.188   6.972
 1598SSM    C3A19486   0.793  25.008   6.518
 1598SSM    C4A19487   0.743  24.922   6.074
 1598SSM    C1B19488   0.490  24.971   7.322
 1598SSM    C2B19489   0.416  24.907   6.832
 1598SSM    C3B19490   0.321  24.837   6.411
 1598SSM    C4B19491   0.222  24.767   5.898
 1599SSM    NC319492  35.347  10.773   7.841
 1599SSM    PO419493  35.206  11.011   7.556
 1599SSM    OH119494  35.153  10.934   7.173
 1599SSM    AM219495  35.353  11.132   7.093
 1599SSM    T1A19496  35.105  10.808   6.875
 1599SSM    C2A19497  35.170  10.816   6.467
 1599SSM    C3A19498  35.324  10.808   5.985
 1599SSM    C4A19499  35.294  10.645   5.513
 1599SSM    C1B19500  35.439  11.266   6.731
 1599SSM    C2B19501  35.661  11.171   6.268
 1599SSM    C3B19502  35.705  11.083   5.759
 1599SSM    C4B19503  35.931  10.980   5.355
 1600SSM    NC319504  11.283  21.018   7.080
 1600SSM    PO419505  11.156  20.642   7.060
 1600SSM    OH119506  11.198  20.467   6.737
 1600SSM    AM219507  11.381  20.671   6.626
 1600SSM    T1A19508  11.058  20.489   6.435
 1600SSM    C2A19509  10.980  20.505   6.040
 1600SSM    C3A19510  11.185  20.346   5.636
 1600SSM    C4A19511  11.180  20.270   5.168
 1600SSM    C1B19512  11.479  20.831   6.326
 1600SSM    C2B19513  11.465  20.818   5.800
 1600SSM    C3B19514  11.361  20.755   5.365
 1600SSM    C4B19515  11.167  20.755   4.910
 1601SSM    NC319516  25.438  29.090   7.605
 1601SSM    PO419517  25.657  28.797   7.410
 1601SSM    OH119518  25.635  28.701   7.009
 1601SSM    AM219519  25.869  28.874   6.997
 1601SSM    T1A19520  25.700  28.553   6.707
 1601SSM    C2A19521  25.681  28.533   6.316
 1601SSM    C3A19522  25.654  28.641   5.853
 1601SSM    C4A19523  25.801  28.791   5.383
 1601SSM    C1B19524  25.917  29.021   6.684
 1601SSM    C2B19525  25.975  29.090   6.208
 1601SSM    C3B19526  25.991  29.290   5.729
 1601SSM    C4B19527  26.045  29.262   5.252
 1602SSM    NC319528  14.684   3.558   7.567
 1602SSM    PO419529  14.876   3.251   7.393
 1602SSM    OH119530  15.186   3.292   7.130
 1602SSM    AM219531  15.015   3.140   6.955
 1602SSM    T1A19532  15.294   3.506   6.898
 1602SSM    C2A19533  15.428   3.538   6.503
 1602SSM    C3A19534  15.479   3.529   5.989
 1602SSM    C4A19535  15.760   3.811   5.721
 1602SSM    C1B19536  15.219   3.024   6.622
 1602SSM    C2B19537  15.189   3.078   6.135
 1602SSM    C3B19538  15.200   2.888   5.639
 1602SSM    C4B19539  15.324   2.716   5.174
 1603SSM    NC319540  17.280   8.261   8.109
 1603SSM    PO419541  17.291   7.958   7.786
 1603SSM    OH119542  17.285   8.080   7.498
 1603SSM    AM219543  17.500   7.917   7.351
 1603SSM    T1A19544  17.159   8.108   7.189
 1603SSM    C2A19545  17.217   8.045   6.769
 1603SSM    C3A19546  17.138   8.130   6.353
 1603SSM    C4A19547  17.071   8.219   5.825
 1603SSM    C1B19548  17.674   7.876   6.959
 1603SSM    C2B19549  17.680   7.971   6.470
 1603SSM    C3B19550  17.649   8.088   6.024
 1603SSM    C4B19551  17.431   8.263   5.567
 1604SSM    NC319552   5.118   9.488   7.991
 1604SSM    PO419553   4.917   9.807   7.834
 1604SSM    OH119554   4.607   9.608   7.725
 1604SSM    AM219555   4.626   9.759   7.461
 1604SSM    T1A19556   4.499   9.361   7.532
 1604SSM    C2A19557   4.464   9.217   7.169
 1604SSM    C3A19558   4.593   9.242   6.743
 1604SSM    C4A19559   4.647   9.241   6.261
 1604SSM    C1B19560   4.491   9.709   7.035
 1604SSM    C2B19561   4.431   9.756   6.526
 1604SSM    C3B19562   4.183   9.644   6.121
 1604SSM    C4B19563   4.064   9.476   5.647
 1605SSM    NC319564  12.763   2.336   7.274
 1605SSM    PO419565  12.544   2.650   7.377
 1605SSM    OH119566  12.389   2.793   7.042
 1605SSM    AM219567  12.584   2.590   6.913
 1605SSM    T1A19568  12.286   2.912   6.746
 1605SSM    C2A19569  12.305   3.002   6.368
 1605SSM    C3A19570  12.338   3.104   5.937
 1605SSM    C4A19571  12.663   3.129   5.625
 1605SSM    C1B19572  12.686   2.288   6.646
 1605SSM    C2B19573  12.611   2.027   6.221
 1605SSM    C3B19574  12.628   1.797   5.763
 1605SSM    C4B19575  12.669   1.435   5.395
 1606SSM    NC319576   9.937   0.115   7.694
 1606SSM    PO419577  10.224   0.217   7.411
 1606SSM    OH119578  10.040   0.321   7.124
 1606SSM    AM219579  10.168   0.077   6.999
 1606SSM    T1A19580   9.892   0.432   6.824
 1606SSM    C2A19581   9.865   0.637   6.511
 1606SSM    C3A19582   9.856   0.604   6.032
 1606SSM    C4A19583   9.937   0.533   5.595
 1606SSM    C1B19584  10.220  -0.045   6.637
 1606SSM    C2B19585  10.124  -0.141   6.118
 1606SSM    C3B19586  10.098  -0.277   5.625
 1606SSM    C4B19587  10.062  -0.305   5.030
 1607SSM    NC319588  25.260   3.570   7.599
 1607SSM    PO419589  25.524   3.877   7.495
 1607SSM    OH119590  25.678   3.723   7.216
 1607SSM    AM219591  25.694   3.981   7.075
 1607SSM    T1A19592  25.838   3.586   6.924
 1607SSM    C2A19593  25.865   3.615   6.521
 1607SSM    C3A19594  25.649   3.438   6.092
 1607SSM    C4A19595  25.409   3.396   5.694
 1607SSM    C1B19596  25.604   4.102   6.708
 1607SSM    C2B19597  25.680   4.365   6.290
 1607SSM    C3B19598  25.633   4.548   5.775
 1607SSM    C4B19599  25.571   4.683   5.286
 1608SSM    NC319600  17.011  21.343   8.299
 1608SSM    PO419601  17.051  21.129   7.921
 1608SSM    OH119602  17.168  21.283   7.663
 1608SSM    AM219603  17.205  21.086   7.457
 1608SSM    T1A19604  17.244  21.484   7.393
 1608SSM    C2A19605  17.215  21.760   7.029
 1608SSM    C3A19606  17.353  21.725   6.575
 1608SSM    C4A19607  17.523  21.733   6.122
 1608SSM    C1B19608  17.330  21.143   7.117
 1608SSM    C2B19609  17.552  21.330   6.679
 1608SSM    C3B19610  17.490  21.167   6.256
 1608SSM    C4B19611  17.456  21.307   5.793
 1609SSM    NC319612  18.901  29.909   7.799
 1609SSM    PO419613  18.525  30.020   7.708
 1609SSM    OH119614  18.589  30.057   7.388
 1609SSM    AM219615  18.880  30.153   7.368
 1609SSM    T1A19616  18.607  30.123   7.051
 1609SSM    C2A19617  18.481  30.137   6.680
 1609SSM    C3A19618  18.549  29.917   6.217
 1609SSM    C4A19619  18.659  29.750   5.752
 1609SSM    C1B19620  19.135  30.154   7.083
 1609SSM    C2B19621  19.377  30.256   6.644
 1609SSM    C3B19622  19.484  30.310   6.151
 1609SSM    C4B19623  19.424  30.447   5.660
 1610SSM    NC319624  27.483  16.232   7.585
 1610SSM    PO419625  27.792  16.485   7.530
 1610SSM    OH119626  27.754  16.290   7.256
 1610SSM    AM219627  27.494  16.419   7.145
 1610SSM    T1A19628  27.707  16.065   6.993
 1610SSM    C2A19629  27.541  16.078   6.624
 1610SSM    C3A19630  27.419  15.875   6.261
 1610SSM    C4A19631  27.201  15.722   5.826
 1610SSM    C1B19632  27.263  16.457   6.754
 1610SSM    C2B19633  27.228  16.434   6.240
 1610SSM    C3B19634  27.191  16.191   5.869
 1610SSM    C4B19635  27.369  15.945   5.418
 1611SSM    NC319636  29.011  29.761   7.331
 1611SSM    PO419637  29.191  30.044   7.208
 1611SSM    OH119638  29.497  30.095   6.994
 1611SSM    AM219639  29.406  29.897   6.781
 1611SSM    T1A19640  29.747  30.088   6.760
 1611SSM    C2A19641  30.071  29.999   6.645
 1611SSM    C3A19642  30.442  29.887   6.330
 1611SSM    C4A19643  30.755  29.966   5.960
 1611SSM    C1B19644  29.595  29.840   6.409
 1611SSM    C2B19645  29.938  30.054   6.162
 1611SSM    C3B19646  30.261  30.150   5.845
 1611SSM    C4B19647  30.624  29.973   5.483
 1612SSM    NC319648   8.628  17.508   7.770
 1612SSM    PO419649   8.905  17.246   7.713
 1612SSM    OH119650   8.749  17.014   7.440
 1612SSM    AM219651   8.680  17.278   7.293
 1612SSM    T1A19652   8.712  16.907   7.115
 1612SSM    C2A19653   8.695  17.015   6.728
 1612SSM    C3A19654   8.719  17.022   6.175
 1612SSM    C4A19655   8.905  16.932   5.776
 1612SSM    C1B19656   8.803  17.439   6.978
 1612SSM    C2B19657   8.835  17.514   6.466
 1612SSM    C3B19658   8.929  17.492   6.011
 1612SSM    C4B19659   9.225  17.621   5.596
 1613SSM    NC319660  23.805  34.645   7.580
 1613SSM    PO419661  23.465  34.565   7.612
 1613SSM    OH119662  23.148  34.501   7.422
 1613SSM    AM219663  23.313  34.330   7.247
 1613SSM    T1A19664  22.946  34.472   7.128
 1613SSM    C2A19665  22.931  34.391   6.760
 1613SSM    C3A19666  22.633  34.157   6.365
 1613SSM    C4A19667  22.557  33.825   6.077
 1613SSM    C1B19668  23.348  34.156   6.912
 1613SSM    C2B19669  23.119  33.985   6.400
 1613SSM    C3B19670  23.105  33.924   5.846
 1613SSM    C4B19671  23.051  33.878   5.324
 1614SSM    NC319672  22.383  22.900   7.803
 1614SSM    PO419673  22.526  22.550   7.575
 1614SSM    OH119674  22.422  22.391   7.265
 1614SSM    AM219675  22.619  22.571   7.119
 1614SSM    T1A19676  22.380  22.196   6.956
 1614SSM    C2A19677  22.463  22.184   6.588
 1614SSM    C3A19678  22.540  21.884   6.238
 1614SSM    C4A19679  22.609  21.593   5.864
 1614SSM    C1B19680  22.800  22.754   6.862
 1614SSM    C2B19681  22.825  22.520   6.434
 1614SSM    C3B19682  22.791  22.293   6.067
 1614SSM    C4B19683  22.979  22.089   5.665
 1615SSM    NC319684  29.345   9.286   7.818
 1615SSM    PO419685  29.292   9.266   7.390
 1615SSM    OH119686  28.918   9.147   7.382
 1615SSM    AM219687  28.961   8.884   7.300
 1615SSM    T1A19688  28.666   9.146   7.161
 1615SSM    C2A19689  28.588   9.054   6.813
 1615SSM    C3A19690  28.591   8.889   6.321
 1615SSM    C4A19691  28.551   8.968   5.801
 1615SSM    C1B19692  28.963   8.612   6.946
 1615SSM    C2B19693  28.769   8.455   6.498
 1615SSM    C3B19694  28.749   8.469   6.002
 1615SSM    C4B19695  28.495   8.378   5.568
 1616SSM    NC319696  32.321   4.611   7.241
 1616SSM    PO419697  32.665   4.687   7.401
 1616SSM    OH119698  32.718   5.018   7.229
 1616SSM    AM219699  32.458   4.994   7.074
 1616SSM    T1A19700  32.819   5.172   6.947
 1616SSM    C2A19701  33.062   5.315   6.660
 1616SSM    C3A19702  33.094   5.468   6.147
 1616SSM    C4A19703  33.160   5.427   5.662
 1616SSM    C1B19704  32.363   4.894   6.749
 1616SSM    C2B19705  32.202   5.004   6.279
 1616SSM    C3B19706  31.960   5.119   5.878
 1616SSM    C4B19707  31.835   5.164   5.377
 1617SSM    NC319708  15.958   6.222   7.844
 1617SSM    PO419709  15.572   6.336   7.919
 1617SSM    OH119710  15.363   6.193   7.665
 1617SSM    AM219711  15.578   6.029   7.539
 1617SSM    T1A19712  15.144   6.130   7.415
 1617SSM    C2A19713  14.946   6.174   7.006
 1617SSM    C3A19714  14.889   6.222   6.561
 1617SSM    C4A19715  15.247   6.208   6.126
 1617SSM    C1B19716  15.878   5.968   7.298
 1617SSM    C2B19717  15.945   5.885   6.797
 1617SSM    C3B19718  15.647   5.928   6.366
 1617SSM    C4B19719  15.638   5.959   5.884
 1618SSM    NC319720  26.697  14.987   7.651
 1618SSM    PO419721  26.935  14.891   7.967
 1618SSM    OH119722  27.182  14.704   7.726
 1618SSM    AM219723  27.180  14.947   7.576
 1618SSM    T1A19724  27.206  14.552   7.424
 1618SSM    C2A19725  27.218  14.655   7.008
 1618SSM    C3A19726  27.210  14.593   6.531
 1618SSM    C4A19727  27.162  14.710   6.029
 1618SSM    C1B19728  27.062  15.103   7.256
 1618SSM    C2B19729  26.969  15.088   6.778
 1618SSM    C3B19730  26.920  14.940   6.336
 1618SSM    C4B19731  26.706  14.900   5.880
 1619SSM    NC319732  24.676   0.329   7.754
 1619SSM    PO419733  24.399   0.637   7.677
 1619SSM    OH119734  24.439   0.860   7.435
 1619SSM    AM219735  24.384   0.673   7.205
 1619SSM    T1A19736  24.215   1.033   7.205
 1619SSM    C2A19737  24.104   1.072   6.837
 1619SSM    C3A19738  24.017   1.254   6.439
 1619SSM    C4A19739  24.000   1.219   5.923
 1619SSM    C1B19740  24.514   0.588   6.830
 1619SSM    C2B19741  24.654   0.650   6.368
 1619SSM    C3B19742  24.962   0.767   6.025
 1619SSM    C4B19743  25.325   0.706   5.747
 1620SSM    NC319744  13.678  25.532   7.454
 1620SSM    PO419745  13.894  25.333   7.152
 1620SSM    OH119746  13.995  25.018   7.035
 1620SSM    AM219747  14.072  25.162   6.798
 1620SSM    T1A19748  14.132  24.725   6.948
 1620SSM    C2A19749  14.309  24.556   6.640
 1620SSM    C3A19750  14.448  24.234   6.265
 1620SSM    C4A19751  14.467  23.962   5.887
 1620SSM    C1B19752  14.010  25.219   6.423
 1620SSM    C2B19753  14.178  25.424   6.003
 1620SSM    C3B19754  14.173  25.474   5.570
 1620SSM    C4B19755  14.541  25.487   5.347
 1621SSM    NC319756  18.902   7.445   7.879
 1621SSM    PO419757  18.649   7.738   7.861
 1621SSM    OH119758  18.559   7.988   7.636
 1621SSM    AM219759  18.466   7.799   7.418
 1621SSM    T1A19760  18.528   8.185   7.340
 1621SSM    C2A19761  18.414   8.281   7.023
 1621SSM    C3A19762  18.508   8.503   6.596
 1621SSM    C4A19763  18.545   8.529   6.085
 1621SSM    C1B19764  18.548   7.720   7.074
 1621SSM    C2B19765  18.464   7.689   6.499
 1621SSM    C3B19766  18.472   7.803   6.029
 1621SSM    C4B19767  18.132   7.910   5.699
 1622SSM    NC319768   3.431  28.224   7.847
 1622SSM    PO419769   3.479  28.100   7.473
 1622SSM    OH119770   3.619  27.857   7.197
 1622SSM    AM219771   3.434  28.009   6.998
 1622SSM    T1A19772   3.725  27.680   6.908
 1622SSM    C2A19773   3.742  27.833   6.517
 1622SSM    C3A19774   3.905  27.808   6.038
 1622SSM    C4A19775   3.744  27.955   5.585
 1622SSM    C1B19776   3.206  28.081   6.754
 1622SSM    C2B19777   3.018  28.285   6.298
 1622SSM    C3B19778   3.112  28.279   5.784
 1622SSM    C4B19779   3.140  28.463   5.320
 1623SSM    NC319780  21.915  21.447   7.863
 1623SSM    PO419781  21.904  21.819   7.649
 1623SSM    OH119782  22.051  21.901   7.273
 1623SSM    AM219783  21.885  21.650   7.234
 1623SSM    T1A19784  22.058  21.852   6.945
 1623SSM    C2A19785  22.177  21.706   6.567
 1623SSM    C3A19786  22.205  21.493   6.159
 1623SSM    C4A19787  22.175  21.241   5.669
 1623SSM    C1B19788  21.939  21.404   6.899
 1623SSM    C2B19789  21.872  21.289   6.443
 1623SSM    C3B19790  21.774  21.225   5.988
 1623SSM    C4B19791  21.391  21.097   5.675
 1624SSM    NC319792   7.939  28.122   7.397
 1624SSM    PO419793   8.047  28.505   7.286
 1624SSM    OH119794   8.095  28.483   6.918
 1624SSM    AM219795   7.807  28.437   6.854
 1624SSM    T1A19796   8.181  28.363   6.639
 1624SSM    C2A19797   8.214  28.345   6.256
 1624SSM    C3A19798   8.076  28.439   5.811
 1624SSM    C4A19799   8.214  28.760   5.447
 1624SSM    C1B19800   7.627  28.333   6.570
 1624SSM    C2B19801   7.222  28.529   6.391
 1624SSM    C3B19802   6.830  28.477   6.131
 1624SSM    C4B19803   6.456  28.352   5.901
 1625SSM    NC319804  25.324   1.935   7.506
 1625SSM    PO419805  25.449   1.564   7.445
 1625SSM    OH119806  25.495   1.513   7.066
 1625SSM    AM219807  25.430   1.802   7.055
 1625SSM    T1A19808  25.655   1.547   6.784
 1625SSM    C2A19809  25.710   1.669   6.439
 1625SSM    C3A19810  25.410   1.650   5.983
 1625SSM    C4A19811  25.027   1.709   5.691
 1625SSM    C1B19812  25.143   2.092   6.991
 1625SSM    C2B19813  24.764   2.356   6.908
 1625SSM    C3B19814  24.683   2.486   6.496
 1625SSM    C4B19815  24.600   2.676   6.134
 1626SSM    NC319816  17.649   1.110   7.219
 1626SSM    PO419817  17.418   1.448   7.170
 1626SSM    OH119818  17.396   1.703   6.942
 1626SSM    AM219819  17.145   1.626   6.762
 1626SSM    T1A19820  17.493   1.807   6.616
 1626SSM    C2A19821  17.560   2.023   6.284
 1626SSM    C3A19822  17.378   1.860   5.948
 1626SSM    C4A19823  17.268   1.511   5.574
 1626SSM    C1B19824  17.079   1.483   6.471
 1626SSM    C2B19825  17.188   1.388   6.008
 1626SSM    C3B19826  16.944   1.021   5.767
 1626SSM    C4B19827  17.056   0.584   5.626
 1627SSM    NC319828  10.130  25.005   6.958
 1627SSM    PO419829   9.903  25.268   6.819
 1627SSM    OH119830  10.003  25.540   6.612
 1627SSM    AM219831   9.828  25.420   6.412
 1627SSM    T1A19832  10.085  25.736   6.338
 1627SSM    C2A19833  10.008  25.818   6.018
 1627SSM    C3A19834  10.064  25.865   5.564
 1627SSM    C4A19835  10.035  25.927   5.111
 1627SSM    C1B19836   9.720  25.407   6.029
 1627SSM    C2B19837   9.650  25.552   5.564
 1627SSM    C3B19838   9.575  25.735   5.198
 1627SSM    C4B19839   9.487  26.149   4.894
 1628SSM    NC319840   8.638  34.335   7.092
 1628SSM    PO419841   9.005  34.370   7.226
 1628SSM    OH119842   8.976  34.422   6.820
 1628SSM    AM219843   9.024  34.137   6.794
 1628SSM    T1A19844   9.012  34.527   6.493
 1628SSM    C2A19845   9.260  34.554   6.142
 1628SSM    C3A19846   9.242  34.526   5.682
 1628SSM    C4A19847   9.208  34.313   5.158
 1628SSM    C1B19848   9.340  33.854   6.728
 1628SSM    C2B19849   9.510  33.414   6.615
 1628SSM    C3B19850   9.433  33.117   6.251
 1628SSM    C4B19851   9.180  32.791   5.904
 1629SSM    NC319852   1.658  33.535   7.682
 1629SSM    PO419853   1.961  33.646   7.531
 1629SSM    OH119854   2.213  33.491   7.290
 1629SSM    AM219855   2.038  33.340   7.093
 1629SSM    T1A19856   2.466  33.392   7.079
 1629SSM    C2A19857   2.621  33.375   6.691
 1629SSM    C3A19858   2.718  33.338   6.203
 1629SSM    C4A19859   2.859  33.199   5.735
 1629SSM    C1B19860   2.085  33.256   6.691
 1629SSM    C2B19861   2.206  33.208   6.213
 1629SSM    C3B19862   2.339  33.184   5.774
 1629SSM    C4B19863   2.426  33.131   5.323
 1630SSM    NC319864  14.953  17.731   7.835
 1630SSM    PO419865  14.687  18.018   7.648
 1630SSM    OH119866  14.571  18.086   7.344
 1630SSM    AM219867  14.565  18.373   7.309
 1630SSM    T1A19868  14.483  18.108   7.017
 1630SSM    C2A19869  14.559  18.093   6.614
 1630SSM    C3A19870  14.638  18.106   6.178
 1630SSM    C4A19871  15.065  18.029   5.987
 1630SSM    C1B19872  14.737  18.697   7.254
 1630SSM    C2B19873  14.729  18.971   6.850
 1630SSM    C3B19874  14.829  19.170   6.452
 1630SSM    C4B19875  15.049  19.585   6.253
 1631SSM    NC319876  33.052   7.484   7.352
 1631SSM    PO419877  33.020   7.123   7.226
 1631SSM    OH119878  33.280   6.970   6.996
 1631SSM    AM219879  33.121   6.751   6.891
 1631SSM    T1A19880  33.429   6.960   6.701
 1631SSM    C2A19881  33.532   6.989   6.284
 1631SSM    C3A19882  33.403   6.846   5.851
 1631SSM    C4A19883  33.154   6.467   5.614
 1631SSM    C1B19884  33.272   6.554   6.594
 1631SSM    C2B19885  33.285   6.431   6.062
 1631SSM    C3B19886  33.495   6.136   5.709
 1631SSM    C4B19887  33.416   6.046   5.234
 1632SSM    NC319888  11.904  15.832   8.332
 1632SSM    PO419889  11.969  15.981   7.949
 1632SSM    OH119890  11.951  16.301   7.689
 1632SSM    AM219891  11.763  16.140   7.514
 1632SSM    T1A19892  12.057  16.388   7.377
 1632SSM    C2A19893  12.278  16.459   7.024
 1632SSM    C3A19894  12.368  16.384   6.535
 1632SSM    C4A19895  12.267  16.276   6.050
 1632SSM    C1B19896  11.881  15.953   7.208
 1632SSM    C2B19897  12.023  16.060   6.699
 1632SSM    C3B19898  12.001  15.910   6.294
 1632SSM    C4B19899  11.957  15.792   5.850
 1633SSM    NC319900  11.275   0.947   7.309
 1633SSM    PO419901  11.572   1.042   7.085
 1633SSM    OH119902  11.563   0.809   6.788
 1633SSM    AM219903  11.601   1.023   6.589
 1633SSM    T1A19904  11.468   0.606   6.527
 1633SSM    C2A19905  11.408   0.792   6.168
 1633SSM    C3A19906  11.383   0.811   5.757
 1633SSM    C4A19907  11.466   0.835   5.263
 1633SSM    C1B19908  11.730   1.262   6.327
 1633SSM    C2B19909  11.726   1.562   5.986
 1633SSM    C3B19910  11.742   1.655   5.550
 1633SSM    C4B19911  11.727   1.902   5.115
 1634SSM    NC319912  15.995   4.086   7.833
 1634SSM    PO419913  16.413   4.123   7.853
 1634SSM    OH119914  16.698   4.114   7.625
 1634SSM    AM219915  16.658   4.412   7.535
 1634SSM    T1A19916  16.751   4.101   7.282
 1634SSM    C2A19917  16.678   4.132   6.882
 1634SSM    C3A19918  16.776   3.918   6.436
 1634SSM    C4A19919  17.229   3.783   6.130
 1634SSM    C1B19920  16.688   4.661   7.207
 1634SSM    C2B19921  16.664   4.660   6.638
 1634SSM    C3B19922  16.918   4.400   6.303
 1634SSM    C4B19923  16.857   4.240   5.801
 1635SSM    NC319924  31.387   2.106   7.953
 1635SSM    PO419925  31.220   2.412   7.771
 1635SSM    OH119926  31.293   2.293   7.403
 1635SSM    AM219927  31.092   2.519   7.324
 1635SSM    T1A19928  31.324   2.238   7.056
 1635SSM    C2A19929  31.269   2.388   6.682
 1635SSM    C3A19930  31.217   2.550   6.249
 1635SSM    C4A19931  31.329   2.626   5.771
 1635SSM    C1B19932  30.984   2.733   7.004
 1635SSM    C2B19933  30.919   2.848   6.526
 1635SSM    C3B19934  30.937   2.880   6.056
 1635SSM    C4B19935  31.015   2.860   5.537
 1636SSM    NC319936   7.050  27.766   7.616
 1636SSM    PO419937   6.803  28.110   7.553
 1636SSM    OH119938   6.863  27.992   7.219
 1636SSM    AM219939   6.571  27.949   7.145
 1636SSM    T1A19940   6.895  28.012   6.896
 1636SSM    C2A19941   6.803  28.026   6.478
 1636SSM    C3A19942   6.574  27.917   6.092
 1636SSM    C4A19943   6.235  27.918   5.697
 1636SSM    C1B19944   6.316  28.171   6.921
 1636SSM    C2B19945   6.395  28.553   6.656
 1636SSM    C3B19946   6.315  28.734   6.262
 1636SSM    C4B19947   6.382  28.820   5.756
 1637SSM    NC319948  35.606  35.344   7.238
 1637SSM    PO419949  35.999  35.204   7.323
 1637SSM    OH119950  36.282  35.293   7.064
 1637SSM    AM219951  36.333  35.007   7.010
 1637SSM    T1A19952  36.395  35.345   6.735
 1637SSM    C2A19953  36.471  35.262   6.341
 1637SSM    C3A19954  36.548  35.345   5.839
 1637SSM    C4A19955  36.547  35.823   5.736
 1637SSM    C1B19956  36.486  34.896   6.696
 1637SSM    C2B19957  36.778  34.648   6.319
 1637SSM    C3B19958  36.905  34.424   5.850
 1637SSM    C4B19959  36.719  34.270   5.448
 1638SSM    NC319960   7.811  13.111   7.538
 1638SSM    PO419961   7.787  12.710   7.525
 1638SSM    OH119962   7.656  12.534   7.221
 1638SSM    AM219963   7.895  12.642   7.071
 1638SSM    T1A19964   7.484  12.655   6.960
 1638SSM    C2A19965   7.658  12.880   6.633
 1638SSM    C3A19966   7.742  12.947   6.192
 1638SSM    C4A19967   7.574  13.020   5.700
 1638SSM    C1B19968   8.050  12.591   6.728
 1638SSM    C2B19969   8.104  12.570   6.155
 1638SSM    C3B19970   8.062  12.890   5.766
 1638SSM    C4B19971   7.953  13.197   5.346
 1639SSM    NC319972   7.152  22.400   7.079
 1639SSM    PO419973   7.240  22.767   7.197
 1639SSM    OH119974   7.091  22.941   6.940
 1639SSM    AM219975   6.914  22.738   6.816
 1639SSM    T1A19976   7.054  23.094   6.658
 1639SSM    C2A19977   6.853  23.194   6.347
 1639SSM    C3A19978   6.653  23.202   5.941
 1639SSM    C4A19979   6.527  23.433   5.513
 1639SSM    C1B19980   6.650  22.820   6.487
 1639SSM    C2B19981   6.380  22.788   6.140
 1639SSM    C3B19982   6.256  22.733   5.671
 1639SSM    C4B19983   6.250  22.770   5.236
 1640SSM    NC319984   5.918   0.635   7.693
 1640SSM    PO419985   5.564   0.812   7.619
 1640SSM    OH119986   5.509   0.821   7.221
 1640SSM    AM219987   5.504   0.529   7.253
 1640SSM    T1A19988   5.559   0.748   6.876
 1640SSM    C2A19989   5.709   0.777   6.521
 1640SSM    C3A19990   6.135   0.701   6.332
 1640SSM    C4A19991   6.329   0.918   5.938
 1640SSM    C1B19992   5.395   0.215   6.941
 1640SSM    C2B19993   5.329  -0.098   6.492
 1640SSM    C3B19994   5.264  -0.231   6.055
 1640SSM    C4B19995   5.230  -0.218   5.580
 1641SSM    NC319996   5.462   1.751   7.905
 1641SSM    PO419997   5.536   1.684   7.519
 1641SSM    OH119998   5.332   1.728   7.218
 1641SSM    AM219999   5.537   1.634   7.023
 1641SSM    T1A20000   5.208   1.845   6.927
 1641SSM    C2A20001   5.190   1.785   6.506
 1641SSM    C3A20002   5.183   1.760   5.971
 1641SSM    C4A20003   5.241   1.881   5.547
 1641SSM    C1B20004   5.718   1.664   6.677
 1641SSM    C2B20005   5.658   1.698   6.183
 1641SSM    C3B20006   5.638   1.563   5.696
 1641SSM    C4B20007   5.416   1.461   5.293
 1642SSM    NC320008  19.588  31.054   7.639
 1642SSM    PO420009  19.473  31.454   7.552
 1642SSM    OH120010  19.678  31.469   7.218
 1642SSM    AM220011  19.625  31.180   7.148
 1642SSM    T1A20012  19.941  31.410   7.031
 1642SSM    C2A20013  20.318  31.534   7.054
 1642SSM    C3A20014  20.830  31.515   7.153
 1642SSM    C4A20015  21.169  31.175   7.177
 1642SSM    C1B20016  19.393  30.886   6.909
 1642SSM    C2B20017  19.297  30.754   6.479
 1642SSM    C3B20018  19.080  30.635   6.045
 1642SSM    C4B20019  18.929  30.681   5.588
 1643SSM    NC320020  25.200  32.031   7.775
 1643SSM    PO420021  24.928  31.984   7.547
 1643SSM    OH120022  24.938  32.031   7.199
 1643SSM    AM220023  24.852  32.317   7.175
 1643SSM    T1A20024  24.792  32.044   6.878
 1643SSM    C2A20025  24.608  32.048   6.511
 1643SSM    C3A20026  24.509  31.924   6.012
 1643SSM    C4A20027  24.591  31.941   5.563
 1643SSM    C1B20028  24.534  32.445   7.033
 1643SSM    C2B20029  24.258  32.758   6.700
 1643SSM    C3B20030  23.965  33.006   6.397
 1643SSM    C4B20031  23.514  32.874   6.103
 1644SSM    NC320032  25.547  23.033   7.836
 1644SSM    PO420033  25.859  22.808   7.882
 1644SSM    OH120034  25.745  22.637   7.584
 1644SSM    AM220035  26.011  22.725   7.437
 1644SSM    T1A20036  25.651  22.554   7.272
 1644SSM    C2A20037  25.731  22.555   6.869
 1644SSM    C3A20038  25.761  22.470   6.429
 1644SSM    C4A20039  25.878  22.407   5.937
 1644SSM    C1B20040  26.102  22.897   7.132
 1644SSM    C2B20041  26.257  22.737   6.671
 1644SSM    C3B20042  26.267  22.711   6.199
 1644SSM    C4B20043  26.258  22.747   5.658
 1645SSM    NC320044  18.116  16.770   8.001
 1645SSM    PO420045  17.755  16.842   7.785
 1645SSM    OH120046  17.593  16.764   7.424
 1645SSM    AM220047  17.460  17.016   7.416
 1645SSM    T1A20048  17.632  16.786   7.078
 1645SSM    C2A20049  17.462  17.066   6.750
 1645SSM    C3A20050  17.325  17.196   6.273
 1645SSM    C4A20051  17.154  17.010   5.885
 1645SSM    C1B20052  17.387  17.288   7.203
 1645SSM    C2B20053  17.109  17.432   6.745
 1645SSM    C3B20054  17.030  17.607   6.259
 1645SSM    C4B20055  16.890  17.801   5.860
 1646SSM    NC320056   8.659   0.623   7.615
 1646SSM    PO420057   8.624   0.509   7.212
 1646SSM    OH120058   8.789   0.640   6.910
 1646SSM    AM220059   8.537   0.713   6.765
 1646SSM    T1A20060   8.875   0.452   6.634
 1646SSM    C2A20061   8.739   0.482   6.296
 1646SSM    C3A20062   8.658   0.332   5.860
 1646SSM    C4A20063   8.884   0.200   5.385
 1646SSM    C1B20064   8.343   0.547   6.522
 1646SSM    C2B20065   8.285   0.636   6.037
 1646SSM    C3B20066   8.185   0.758   5.615
 1646SSM    C4B20067   7.829   0.746   5.280
 1647SSM    NC320068  20.606  33.220   7.441
 1647SSM    PO420069  20.837  33.370   7.702
 1647SSM    OH120070  21.143  33.458   7.522
 1647SSM    AM220071  21.121  33.237   7.339
 1647SSM    T1A20072  21.307  33.653   7.297
 1647SSM    C2A20073  21.442  33.807   6.938
 1647SSM    C3A20074  21.529  33.832   6.463
 1647SSM    C4A20075  21.495  33.916   6.010
 1647SSM    C1B20076  21.055  33.142   6.901
 1647SSM    C2B20077  20.784  33.021   6.498
 1647SSM    C3B20078  20.470  33.040   6.111
 1647SSM    C4B20079  20.317  32.821   5.665
 1648SSM    NC320080   5.233   6.308   7.632
 1648SSM    PO420081   5.502   6.008   7.457
 1648SSM    OH120082   5.616   6.006   7.091
 1648SSM    AM220083   5.440   5.740   7.026
 1648SSM    T1A20084   5.745   5.989   6.772
 1648SSM    C2A20085   5.738   6.071   6.377
 1648SSM    C3A20086   5.343   6.000   6.202
 1648SSM    C4A20087   5.412   5.681   5.804
 1648SSM    C1B20088   5.207   5.568   6.717
 1648SSM    C2B20089   5.290   5.362   6.305
 1648SSM    C3B20090   5.432   5.123   5.908
 1648SSM    C4B20091   5.749   4.733   5.825
 1649SSM    NC320092   8.004   9.035   7.679
 1649SSM    PO420093   8.285   8.985   7.384
 1649SSM    OH120094   8.191   9.272   7.158
 1649SSM    AM220095   8.215   9.106   6.916
 1649SSM    T1A20096   8.153   9.520   6.922
 1649SSM    C2A20097   8.039   9.334   6.585
 1649SSM    C3A20098   7.970   9.171   6.148
 1649SSM    C4A20099   7.791   9.034   5.708
 1649SSM    C1B20100   8.117   8.792   6.654
 1649SSM    C2B20101   8.042   8.533   6.184
 1649SSM    C3B20102   7.909   8.420   5.748
 1649SSM    C4B20103   7.757   8.262   5.281
 1650SSM    NC320104   6.453  10.167   7.716
 1650SSM    PO420105   6.168  10.097   7.483
 1650SSM    OH120106   6.042  10.314   7.208
 1650SSM    AM220107   5.817  10.104   7.132
 1650SSM    T1A20108   6.151  10.303   6.872
 1650SSM    C2A20109   6.138  10.481   6.509
 1650SSM    C3A20110   5.848  10.632   6.156
 1650SSM    C4A20111   5.778  11.022   5.837
 1650SSM    C1B20112   5.487   9.942   6.978
 1650SSM    C2B20113   5.384   9.745   6.510
 1650SSM    C3B20114   5.618   9.597   6.152
 1650SSM    C4B20115   6.076   9.697   6.194
 1651SSM    NC320116  20.249   3.348   7.338
 1651SSM    PO420117  20.047   3.052   7.200
 1651SSM    OH120118  19.855   2.973   6.899
 1651SSM    AM220119  20.085   2.899   6.726
 1651SSM    T1A20120  19.726   3.016   6.599
 1651SSM    C2A20121  19.636   3.240   6.279
 1651SSM    C3A20122  19.502   3.369   5.828
 1651SSM    C4A20123  19.635   3.571   5.438
 1651SSM    C1B20124  20.121   2.972   6.327
 1651SSM    C2B20125  20.385   3.084   5.931
 1651SSM    C3B20126  20.653   2.959   5.603
 1651SSM    C4B20127  21.033   2.739   5.570
 1652SSM    NC320128  22.537  34.414   8.017
 1652SSM    PO420129  22.354  34.051   7.883
 1652SSM    OH120130  22.308  34.308   7.621
 1652SSM    AM220131  22.392  34.134   7.388
 1652SSM    T1A20132  22.374  34.601   7.432
 1652SSM    C2A20133  22.290  34.835   7.084
 1652SSM    C3A20134  22.273  34.985   6.652
 1652SSM    C4A20135  22.237  35.112   6.223
 1652SSM    C1B20136  22.405  34.007   7.007
 1652SSM    C2B20137  22.618  33.741   6.724
 1652SSM    C3B20138  22.216  33.611   6.446
 1652SSM    C4B20139  21.747  33.456   6.294
 1653SSM    NC320140  20.926  16.883   7.685
 1653SSM    PO420141  20.936  16.524   7.563
 1653SSM    OH120142  20.840  16.330   7.224
 1653SSM    AM220143  21.001  16.531   7.098
 1653SSM    T1A20144  20.714  16.303   6.903
 1653SSM    C2A20145  20.634  16.044   6.596
 1653SSM    C3A20146  20.623  15.933   6.099
 1653SSM    C4A20147  20.724  15.882   5.672
 1653SSM    C1B20148  21.090  16.615   6.679
 1653SSM    C2B20149  21.152  16.683   6.157
 1653SSM    C3B20150  20.909  16.951   5.822
 1653SSM    C4B20151  20.784  16.893   5.335
 1654SSM    NC320152  16.653  30.437   7.882
 1654SSM    PO420153  16.408  30.501   7.563
 1654SSM    OH120154  16.273  30.788   7.356
 1654SSM    AM220155  16.492  30.844   7.120
 1654SSM    T1A20156  16.054  30.950   7.136
 1654SSM    C2A20157  15.827  30.813   6.854
 1654SSM    C3A20158  15.415  30.665   6.612
 1654SSM    C4A20159  15.250  30.522   6.177
 1654SSM    C1B20160  16.450  31.035   6.764
 1654SSM    C2B20161  16.389  31.181   6.276
 1654SSM    C3B20162  16.380  31.364   5.863
 1654SSM    C4B20163  16.093  31.546   5.426
 1655SSM    NC320164  25.739  13.884   8.301
 1655SSM    PO420165  25.970  14.045   8.011
 1655SSM    OH120166  25.953  14.003   7.596
 1655SSM    AM220167  26.220  14.120   7.627
 1655SSM    T1A20168  26.053  13.921   7.261
 1655SSM    C2A20169  26.196  13.783   6.910
 1655SSM    C3A20170  26.264  13.745   6.442
 1655SSM    C4A20171  26.264  13.794   5.983
 1655SSM    C1B20172  26.503  14.018   7.259
 1655SSM    C2B20173  26.676  13.930   6.783
 1655SSM    C3B20174  26.711  13.928   6.265
 1655SSM    C4B20175  26.846  14.075   5.812
 1656SSM    NC320176  30.889  10.971   7.252
 1656SSM    PO420177  30.853  11.387   7.234
 1656SSM    OH120178  30.732  11.417   6.891
 1656SSM    AM220179  30.801  11.708   6.836
 1656SSM    T1A20180  30.506  11.491   6.662
 1656SSM    C2A20181  30.192  11.536   6.452
 1656SSM    C3A20182  29.973  11.411   6.052
 1656SSM    C4A20183  29.710  11.316   5.698
 1656SSM    C1B20184  31.051  11.863   6.574
 1656SSM    C2B20185  31.345  12.128   6.215
 1656SSM    C3B20186  31.470  12.040   5.731
 1656SSM    C4B20187  31.524  12.236   5.297
 1657SSM    NC320188  27.909  11.800   7.641
 1657SSM    PO420189  27.881  12.176   7.520
 1657SSM    OH120190  28.163  12.255   7.276
 1657SSM    AM220191  28.036  12.463   7.093
 1657SSM    T1A20192  28.377  12.211   7.003
 1657SSM    C2A20193  28.569  11.977   6.742
 1657SSM    C3A20194  28.489  12.005   6.274
 1657SSM    C4A20195  28.536  11.948   5.790
 1657SSM    C1B20196  28.081  12.568   6.715
 1657SSM    C2B20197  27.946  12.681   6.243
 1657SSM    C3B20198  27.926  12.785   5.764
 1657SSM    C4B20199  27.935  12.920   5.281
 1658SSM    NC320200  22.216   8.414   7.556
 1658SSM    PO420201  22.082   8.781   7.617
 1658SSM    OH120202  21.971   8.853   7.286
 1658SSM    AM220203  22.125   8.602   7.152
 1658SSM    T1A20204  22.024   9.036   7.013
 1658SSM    C2A20205  22.246   9.052   6.620
 1658SSM    C3A20206  22.237   9.097   6.146
 1658SSM    C4A20207  22.078   9.088   5.661
 1658SSM    C1B20208  22.338   8.626   6.866
 1658SSM    C2B20209  22.357   8.564   6.372
 1658SSM    C3B20210  22.324   8.327   5.978
 1658SSM    C4B20211  22.440   8.307   5.551
 1659SSM    NC320212  31.745   6.757   7.416
 1659SSM    PO420213  31.480   6.472   7.440
 1659SSM    OH120214  31.210   6.600   7.234
 1659SSM    AM220215  31.389   6.847   7.123
 1659SSM    T1A20216  31.187   6.519   6.901
 1659SSM    C2A20217  31.356   6.689   6.606
 1659SSM    C3A20218  31.405   6.732   6.142
 1659SSM    C4A20219  31.451   6.698   5.639
 1659SSM    C1B20220  31.701   6.940   6.909
 1659SSM    C2B20221  31.813   6.799   6.427
 1659SSM    C3B20222  31.834   6.832   5.962
 1659SSM    C4B20223  32.045   6.948   5.496
 1660SSM    NC320224  11.861  26.072   7.026
 1660SSM    PO420225  11.778  25.688   7.096
 1660SSM    OH120226  11.570  25.713   6.850
 1660SSM    AM220227  11.737  25.892   6.655
 1660SSM    T1A20228  11.583  25.467   6.597
 1660SSM    C2A20229  11.670  25.229   6.294
 1660SSM    C3A20230  11.497  25.230   5.819
 1660SSM    C4A20231  11.227  25.165   5.389
 1660SSM    C1B20232  11.831  25.846   6.244
 1660SSM    C2B20233  11.831  25.686   5.772
 1660SSM    C3B20234  11.489  25.657   5.439
 1660SSM    C4B20235  11.583  25.995   5.061
 1661SSM    NC320236  32.101  17.994   7.867
 1661SSM    PO420237  32.003  17.603   7.764
 1661SSM    OH120238  32.085  17.581   7.364
 1661SSM    AM220239  32.071  17.898   7.390
 1661SSM    T1A20240  32.138  17.619   7.027
 1661SSM    C2A20241  32.152  17.808   6.701
 1661SSM    C3A20242  32.066  18.045   6.279
 1661SSM    C4A20243  31.877  18.202   5.884
 1661SSM    C1B20244  32.221  18.093   7.078
 1661SSM    C2B20245  32.346  18.436   6.663
 1661SSM    C3B20246  32.591  18.639   6.245
 1661SSM    C4B20247  33.019  18.687   5.987
 1662SSM    NC320248  30.639   0.381   6.820
 1662SSM    PO420249  30.759   0.647   7.086
 1662SSM    OH120250  30.764   0.998   6.969
 1662SSM    AM220251  30.901   0.864   6.752
 1662SSM    T1A20252  30.827   1.326   6.842
 1662SSM    C2A20253  30.668   1.372   6.471
 1662SSM    C3A20254  30.647   1.236   6.030
 1662SSM    C4A20255  30.515   1.376   5.624
 1662SSM    C1B20256  30.969   0.939   6.418
 1662SSM    C2B20257  31.097   1.068   5.914
 1662SSM    C3B20258  31.332   1.223   5.486
 1662SSM    C4B20259  31.201   1.188   5.053
 1663SSM    NC320260  21.963   1.817   7.356
 1663SSM    PO420261  22.029   1.421   7.392
 1663SSM    OH120262  22.108   1.371   7.065
 1663SSM    AM220263  21.831   1.385   6.973
 1663SSM    T1A20264  22.227   1.473   6.759
 1663SSM    C2A20265  22.378   1.358   6.419
 1663SSM    C3A20266  22.366   1.272   5.968
 1663SSM    C4A20267  22.474   1.191   5.452
 1663SSM    C1B20268  21.594   1.524   6.691
 1663SSM    C2B20269  21.492   1.456   6.210
 1663SSM    C3B20270  21.516   1.441   5.723
 1663SSM    C4B20271  21.491   1.530   5.162
 1664SSM    NC320272  16.117   7.957   8.009
 1664SSM    PO420273  16.045   7.721   7.725
 1664SSM    OH120274  16.040   7.541   7.378
 1664SSM    AM220275  15.953   7.793   7.239
 1664SSM    T1A20276  16.144   7.462   7.051
 1664SSM    C2A20277  16.120   7.254   6.706
 1664SSM    C3A20278  16.181   7.069   6.302
 1664SSM    C4A20279  16.432   7.194   5.982
 1664SSM    C1B20280  15.663   7.917   7.000
 1664SSM    C2B20281  15.459   8.050   6.558
 1664SSM    C3B20282  15.305   8.211   6.098
 1664SSM    C4B20283  15.354   8.416   5.658
 1665SSM    NC320284  28.611  17.022   7.590
 1665SSM    PO420285  28.593  17.050   7.223
 1665SSM    OH120286  28.825  17.009   6.953
 1665SSM    AM220287  28.773  17.257   6.803
 1665SSM    T1A20288  28.807  16.880   6.626
 1665SSM    C2A20289  28.691  16.757   6.225
 1665SSM    C3A20290  28.465  16.664   5.774
 1665SSM    C4A20291  28.383  16.806   5.272
 1665SSM    C1B20292  28.744  17.364   6.439
 1665SSM    C2B20293  28.884  17.562   5.931
 1665SSM    C3B20294  29.093  17.713   5.526
 1665SSM    C4B20295  29.012  17.764   5.064
 1666SSM    NC320296  13.887  15.828   7.718
 1666SSM    PO420297  14.166  16.036   7.461
 1666SSM    OH120298  14.482  16.091   7.274
 1666SSM    AM220299  14.355  16.363   7.217
 1666SSM    T1A20300  14.675  16.115   6.968
 1666SSM    C2A20301  14.570  16.219   6.566
 1666SSM    C3A20302  14.323  16.327   6.193
 1666SSM    C4A20303  13.946  16.387   5.873
 1666SSM    C1B20304  14.531  16.603   6.945
 1666SSM    C2B20305  14.432  16.716   6.478
 1666SSM    C3B20306  14.161  16.811   6.117
 1666SSM    C4B20307  14.406  16.709   5.690
 1667SSM    NC320308  13.640  30.183   7.459
 1667SSM    PO420309  13.282  30.066   7.416
 1667SSM    OH120310  13.245  29.957   7.054
 1667SSM    AM220311  13.431  30.185   6.948
 1667SSM    T1A20312  13.334  29.822   6.743
 1667SSM    C2A20313  13.477  29.769   6.396
 1667SSM    C3A20314  13.675  29.600   5.991
 1667SSM    C4A20315  13.976  29.362   5.698
 1667SSM    C1B20316  13.430  30.371   6.642
 1667SSM    C2B20317  13.470  30.601   6.202
 1667SSM    C3B20318  13.434  30.541   5.753
 1667SSM    C4B20319  13.364  30.740   5.235
 1668SSM    NC320320  11.878  17.818   7.444
 1668SSM    PO420321  12.039  18.166   7.305
 1668SSM    OH120322  12.238  18.190   7.019
 1668SSM    AM220323  12.045  18.311   6.836
 1668SSM    T1A20324  12.310  18.034   6.706
 1668SSM    C2A20325  12.334  18.083   6.288
 1668SSM    C3A20326  12.500  18.046   5.835
 1668SSM    C4A20327  12.647  18.346   5.361
 1668SSM    C1B20328  12.036  18.438   6.470
 1668SSM    C2B20329  12.226  18.461   5.968
 1668SSM    C3B20330  12.173  18.272   5.553
 1668SSM    C4B20331  12.114  18.240   5.050
 1669SSM    NC320332  25.789   9.772   7.783
 1669SSM    PO420333  26.008  10.076   7.818
 1669SSM    OH120334  26.122  10.259   7.462
 1669SSM    AM220335  25.925  10.030   7.356
 1669SSM    T1A20336  26.283  10.163   7.146
 1669SSM    C2A20337  26.371  10.320   6.754
 1669SSM    C3A20338  26.343  10.605   6.363
 1669SSM    C4A20339  26.312  10.506   5.866
 1669SSM    C1B20340  25.658  10.015   6.990
 1669SSM    C2B20341  25.585   9.980   6.465
 1669SSM    C3B20342  25.395  10.110   5.966
 1669SSM    C4B20343  25.445  10.198   5.523
 1670SSM    NC320344  17.510   7.219   8.272
 1670SSM    PO420345  17.515   7.440   7.913
 1670SSM    OH120346  17.561   7.306   7.584
 1670SSM    AM220347  17.354   7.524   7.489
 1670SSM    T1A20348  17.668   7.314   7.245
 1670SSM    C2A20349  17.750   7.145   6.924
 1670SSM    C3A20350  17.815   7.131   6.468
 1670SSM    C4A20351  17.903   7.073   6.032
 1670SSM    C1B20352  17.352   7.546   7.100
 1670SSM    C2B20353  17.470   7.454   6.548
 1670SSM    C3B20354  17.491   7.356   6.048
 1670SSM    C4B20355  17.592   7.204   5.584
 1671SSM    NC320356  24.441   7.467   7.964
 1671SSM    PO420357  24.463   7.856   7.905
 1671SSM    OH120358  24.610   8.005   7.580
 1671SSM    AM220359  24.323   8.076   7.481
 1671SSM    T1A20360  24.748   8.056   7.278
 1671SSM    C2A20361  24.905   8.049   6.934
 1671SSM    C3A20362  25.038   8.156   6.462
 1671SSM    C4A20363  25.070   8.226   6.000
 1671SSM    C1B20364  24.053   8.037   7.229
 1671SSM    C2B20365  24.094   8.028   6.674
 1671SSM    C3B20366  24.105   7.882   6.229
 1671SSM    C4B20367  24.333   7.920   5.833
 1672SSM    NC320368  28.801  15.284   7.865
 1672SSM    PO420369  28.468  15.101   7.780
 1672SSM    OH120370  28.421  14.873   7.460
 1672SSM    AM220371  28.486  15.145   7.337
 1672SSM    T1A20372  28.312  14.783   7.144
 1672SSM    C2A20373  28.378  14.759   6.759
 1672SSM    C3A20374  28.517  14.843   6.266
 1672SSM    C4A20375  28.673  14.832   5.782
 1672SSM    C1B20376  28.560  15.308   6.962
 1672SSM    C2B20377  28.662  15.323   6.467
 1672SSM    C3B20378  28.616  15.235   5.992
 1672SSM    C4B20379  28.364  15.203   5.572
 1673SSM    NC320380  19.082  20.361   8.308
 1673SSM    PO420381  18.826  20.026   8.288
 1673SSM    OH120382  19.002  19.874   7.981
 1673SSM    AM220383  18.996  20.131   7.820
 1673SSM    T1A20384  19.068  19.713   7.655
 1673SSM    C2A20385  19.117  19.596   7.286
 1673SSM    C3A20386  19.095  19.590   6.842
 1673SSM    C4A20387  19.113  19.398   6.364
 1673SSM    C1B20388  19.051  20.183   7.426
 1673SSM    C2B20389  19.021  20.128   6.908
 1673SSM    C3B20390  19.065  20.006   6.517
 1673SSM    C4B20391  19.081  19.817   6.092
 1674SSM    NC320392   3.347   1.751   7.833
 1674SSM    PO420393   3.276   1.410   7.645
 1674SSM    OH120394   3.239   1.343   7.272
 1674SSM    AM220395   3.513   1.457   7.201
 1674SSM    T1A20396   3.203   1.338   6.924
 1674SSM    C2A20397   3.196   1.389   6.513
 1674SSM    C3A20398   3.227   1.429   5.988
 1674SSM    C4A20399   3.149   1.303   5.504
 1674SSM    C1B20400   3.759   1.472   6.820
 1674SSM    C2B20401   3.774   1.485   6.287
 1674SSM    C3B20402   3.747   1.446   5.836
 1674SSM    C4B20403   3.650   1.340   5.305
 1675SSM    NC320404  21.257   5.415   7.999
 1675SSM    PO420405  21.197   5.755   7.749
 1675SSM    OH120406  21.413   5.771   7.427
 1675SSM    AM220407  21.616   5.551   7.542
 1675SSM    T1A20408  21.603   5.712   7.170
 1675SSM    C2A20409  21.807   5.658   6.819
 1675SSM    C3A20410  21.867   5.512   6.308
 1675SSM    C4A20411  21.762   5.578   5.781
 1675SSM    C1B20412  21.774   5.291   7.281
 1675SSM    C2B20413  21.875   5.139   6.778
 1675SSM    C3B20414  22.139   4.896   6.452
 1675SSM    C4B20415  22.399   4.873   6.048
 1676SSM    NC320416  28.002   9.858   7.527
 1676SSM    PO420417  28.329   9.717   7.629
 1676SSM    OH120418  28.431   9.602   7.244
 1676SSM    AM220419  28.317   9.861   7.148
 1676SSM    T1A20420  28.476   9.488   6.921
 1676SSM    C2A20421  28.473   9.428   6.549
 1676SSM    C3A20422  28.427   9.432   6.109
 1676SSM    C4A20423  28.161   9.344   5.729
 1676SSM    C1B20424  28.253   9.950   6.784
 1676SSM    C2B20425  28.375   9.902   6.273
 1676SSM    C3B20426  28.258   9.900   5.810
 1676SSM    C4B20427  28.147   9.685   5.369
 1677SSM    NC320428   1.027  29.101   7.141
 1677SSM    PO420429   1.350  28.915   7.041
 1677SSM    OH120430   1.463  28.763   6.760
 1677SSM    AM220431   1.202  28.659   6.649
 1677SSM    T1A20432   1.571  28.591   6.476
 1677SSM    C2A20433   1.442  28.383   6.176
 1677SSM    C3A20434   1.438  28.326   5.739
 1677SSM    C4A20435   1.335  28.325   5.208
 1677SSM    C1B20436   0.984  28.450   6.417
 1677SSM    C2B20437   0.969  28.326   5.912
 1677SSM    C3B20438   0.902  28.079   5.469
 1677SSM    C4B20439   0.943  27.826   5.024
 1678SSM    NC320440  23.188  32.784   8.132
 1678SSM    PO420441  23.115  32.791   7.730
 1678SSM    OH120442  23.274  32.795   7.417
 1678SSM    AM220443  23.001  32.775   7.264
 1678SSM    T1A20444  23.403  32.765   7.110
 1678SSM    C2A20445  23.499  32.671   6.685
 1678SSM    C3A20446  23.708  32.448   6.334
 1678SSM    C4A20447  23.999  32.615   5.952
 1678SSM    C1B20448  22.866  32.929   6.898
 1678SSM    C2B20449  22.918  32.993   6.409
 1678SSM    C3B20450  23.050  32.942   5.901
 1678SSM    C4B20451  23.270  32.928   5.480
 1679SSM    NC320452  10.352  25.728   6.808
 1679SSM    PO420453  10.463  25.361   6.728
 1679SSM    OH120454  10.345  25.416   6.398
 1679SSM    AM220455  10.572  25.234   6.284
 1679SSM    T1A20456  10.191  25.423   6.079
 1679SSM    C2A20457  10.118  25.388   5.694
 1679SSM    C3A20458  10.026  25.458   5.226
 1679SSM    C4A20459   9.852  25.606   4.740
 1679SSM    C1B20460  10.784  25.139   6.057
 1679SSM    C2B20461  10.696  25.127   5.552
 1679SSM    C3B20462  10.422  25.112   5.179
 1679SSM    C4B20463  10.086  25.059   4.791
 1680SSM    NC320464  19.694  35.453   7.659
 1680SSM    PO420465  19.746  35.807   7.806
 1680SSM    OH120466  19.561  36.039   7.630
 1680SSM    AM220467  19.353  35.853   7.523
 1680SSM    T1A20468  19.569  36.155   7.285
 1680SSM    C2A20469  19.505  36.150   6.874
 1680SSM    C3A20470  19.240  36.178   6.453
 1680SSM    C4A20471  19.096  36.269   6.000
 1680SSM    C1B20472  19.365  35.743   7.158
 1680SSM    C2B20473  19.391  35.720   6.635
 1680SSM    C3B20474  19.293  35.758   6.103
 1680SSM    C4B20475  19.359  35.797   5.643
 1681SSM    NC320476  17.188  10.551   7.715
 1681SSM    PO420477  17.174  10.164   7.630
 1681SSM    OH120478  17.186   9.998   7.307
 1681SSM    AM220479  17.215  10.279   7.183
 1681SSM    T1A20480  17.094   9.874   7.013
 1681SSM    C2A20481  16.963   9.829   6.601
 1681SSM    C3A20482  16.989   9.782   6.124
 1681SSM    C4A20483  16.950   9.644   5.701
 1681SSM    C1B20484  17.229  10.345   6.739
 1681SSM    C2B20485  17.071  10.260   6.233
 1681SSM    C3B20486  17.120  10.171   5.786
 1681SSM    C4B20487  17.426   9.941   5.457
 1682SSM    NC320488   3.679   7.851   7.456
 1682SSM    PO420489   3.931   7.550   7.473
 1682SSM    OH120490   3.737   7.368   7.240
 1682SSM    AM220491   3.458   7.427   7.348
 1682SSM    T1A20492   3.551   7.349   6.925
 1682SSM    C2A20493   3.525   7.671   6.652
 1682SSM    C3A20494   3.528   8.004   6.267
 1682SSM    C4A20495   3.580   8.122   5.792
 1682SSM    C1B20496   3.094   7.435   7.206
 1682SSM    C2B20497   2.977   7.330   6.716
 1682SSM    C3B20498   2.891   7.266   6.223
 1682SSM    C4B20499   2.854   7.061   5.744
 1683SSM    NC320500  25.216  23.675   7.915
 1683SSM    PO420501  25.147  23.348   7.710
 1683SSM    OH120502  25.010  23.289   7.354
 1683SSM    AM220503  25.299  23.199   7.262
 1683SSM    T1A20504  25.002  23.420   7.027
 1683SSM    C2A20505  24.930  23.420   6.636
 1683SSM    C3A20506  24.844  23.374   6.146
 1683SSM    C4A20507  24.912  23.406   5.596
 1683SSM    C1B20508  25.460  22.982   7.028
 1683SSM    C2B20509  25.465  22.851   6.498
 1683SSM    C3B20510  25.399  22.686   6.027
 1683SSM    C4B20511  25.547  22.569   5.560
 1684SSM    NC320512  27.690  35.687   7.290
 1684SSM    PO420513  27.417  35.672   7.565
 1684SSM    OH120514  27.123  35.673   7.393
 1684SSM    AM220515  27.175  35.385   7.303
 1684SSM    T1A20516  26.953  35.724   7.095
 1684SSM    C2A20517  26.764  35.707   6.791
 1684SSM    C3A20518  26.623  35.745   6.342
 1684SSM    C4A20519  26.460  35.947   5.913
 1684SSM    C1B20520  26.961  35.258   6.993
 1684SSM    C2B20521  26.757  35.250   6.510
 1684SSM    C3B20522  26.730  35.357   6.109
 1684SSM    C4B20523  26.572  35.481   5.684
 1685SSM    NC320524  16.556   7.633   7.795
 1685SSM    PO420525  16.499   7.486   7.440
 1685SSM    OH120526  16.571   7.625   7.110
 1685SSM    AM220527  16.849   7.544   7.063
 1685SSM    T1A20528  16.498   7.492   6.796
 1685SSM    C2A20529  16.377   7.539   6.414
 1685SSM    C3A20530  16.200   7.675   5.955
 1685SSM    C4A20531  16.241   7.798   5.480
 1685SSM    C1B20532  16.954   7.603   6.688
 1685SSM    C2B20533  16.966   7.699   6.163
 1685SSM    C3B20534  17.151   7.659   5.692
 1685SSM    C4B20535  17.229   7.726   5.224
 1686SSM    NC320536  11.481  35.860   7.557
 1686SSM    PO420537  11.734  35.688   7.297
 1686SSM    OH120538  11.546  35.542   6.996
 1686SSM    AM220539  11.594  35.267   6.997
 1686SSM    T1A20540  11.370  35.451   6.711
 1686SSM    C2A20541  11.313  35.205   6.372
 1686SSM    C3A20542  11.221  35.111   5.898
 1686SSM    C4A20543  11.139  34.980   5.441
 1686SSM    C1B20544  11.730  35.013   6.812
 1686SSM    C2B20545  11.605  34.807   6.346
 1686SSM    C3B20546  11.603  34.607   5.928
 1686SSM    C4B20547  11.228  34.537   5.634
 1687SSM    NC320548  29.448  16.733   7.514
 1687SSM    PO420549  29.034  16.864   7.435
 1687SSM    OH120550  28.970  16.662   7.113
 1687SSM    AM220551  29.215  16.477   7.174
 1687SSM    T1A20552  28.898  16.450   6.906
 1687SSM    C2A20553  29.039  16.321   6.570
 1687SSM    C3A20554  28.926  16.328   6.049
 1687SSM    C4A20555  28.636  16.196   5.714
 1687SSM    C1B20556  29.467  16.383   6.895
 1687SSM    C2B20557  29.490  16.405   6.389
 1687SSM    C3B20558  29.413  16.320   5.913
 1687SSM    C4B20559  29.188  16.296   5.472
 1688SSM    NC320560  11.988  21.587   7.150
 1688SSM    PO420561  12.168  21.916   7.313
 1688SSM    OH120562  12.194  22.056   6.994
 1688SSM    AM220563  12.311  21.845   6.792
 1688SSM    T1A20564  12.222  22.277   6.744
 1688SSM    C2A20565  12.363  22.566   6.502
 1688SSM    C3A20566  12.419  22.689   6.040
 1688SSM    C4A20567  12.364  22.462   5.547
 1688SSM    C1B20568  12.441  21.794   6.430
 1688SSM    C2B20569  12.670  21.842   5.987
 1688SSM    C3B20570  12.746  21.882   5.518
 1688SSM    C4B20571  12.897  21.815   5.010
 1689SSM    NC320572  32.248  27.865   7.810
 1689SSM    PO420573  32.268  27.454   7.863
 1689SSM    OH120574  32.392  27.345   7.539
 1689SSM    AM220575  32.273  27.625   7.461
 1689SSM    T1A20576  32.367  27.251   7.214
 1689SSM    C2A20577  32.269  27.352   6.825
 1689SSM    C3A20578  32.259  27.484   6.399
 1689SSM    C4A20579  32.092  27.480   5.931
 1689SSM    C1B20580  32.028  27.765   7.214
 1689SSM    C2B20581  31.948  27.828   6.694
 1689SSM    C3B20582  31.978  27.961   6.231
 1689SSM    C4B20583  32.031  27.952   5.767
 1690SSM    NC320584  23.054  12.142   7.556
 1690SSM    PO420585  22.764  12.267   7.415
 1690SSM    OH120586  22.761  12.141   7.063
 1690SSM    AM220587  22.893  12.360   6.932
 1690SSM    T1A20588  22.734  11.986   6.739
 1690SSM    C2A20589  22.684  11.804   6.406
 1690SSM    C3A20590  22.452  11.723   5.989
 1690SSM    C4A20591  22.168  11.526   5.615
 1690SSM    C1B20592  23.100  12.579   6.589
 1690SSM    C2B20593  23.320  12.590   6.093
 1690SSM    C3B20594  23.467  12.590   5.665
 1690SSM    C4B20595  23.674  12.551   5.177
 1691SSM    NC320596  31.380  19.574   7.664
 1691SSM    PO420597  31.476  19.180   7.586
 1691SSM    OH120598  31.730  19.143   7.346
 1691SSM    AM220599  31.550  19.056   7.117
 1691SSM    T1A20600  31.955  18.949   7.168
 1691SSM    C2A20601  32.033  18.766   6.880
 1691SSM    C3A20602  31.989  18.561   6.366
 1691SSM    C4A20603  32.192  18.621   5.907
 1691SSM    C1B20604  31.507  18.773   6.834
 1691SSM    C2B20605  31.484  18.592   6.388
 1691SSM    C3B20606  31.405  18.426   5.953
 1691SSM    C4B20607  31.392  18.152   5.572
 1692SSM    NC320608  20.465  23.857   7.996
 1692SSM    PO420609  20.223  23.592   7.774
 1692SSM    OH120610  20.146  23.572   7.396
 1692SSM    AM220611  20.369  23.726   7.349
 1692SSM    T1A20612  20.209  23.457   7.083
 1692SSM    C2A20613  20.285  23.510   6.696
 1692SSM    C3A20614  20.377  23.477   6.239
 1692SSM    C4A20615  20.397  23.500   5.801
 1692SSM    C1B20616  20.616  23.781   7.067
 1692SSM    C2B20617  20.827  23.998   6.652
 1692SSM    C3B20618  21.042  23.925   6.238
 1692SSM    C4B20619  21.353  23.662   6.044
 1693SSM    NC320620  33.581  13.526   7.759
 1693SSM    PO420621  33.559  13.320   7.458
 1693SSM    OH120622  33.444  13.378   7.158
 1693SSM    AM220623  33.625  13.557   7.026
 1693SSM    T1A20624  33.450  13.258   6.821
 1693SSM    C2A20625  33.605  13.399   6.457
 1693SSM    C3A20626  33.928  13.503   6.211
 1693SSM    C4A20627  34.283  13.583   5.874
 1693SSM    C1B20628  33.774  13.756   6.780
 1693SSM    C2B20629  33.888  14.036   6.350
 1693SSM    C3B20630  34.125  14.056   5.919
 1693SSM    C4B20631  34.530  13.928   5.686
 1694SSM    NC320632  35.447  24.945   8.252
 1694SSM    PO420633  35.748  25.120   8.103
 1694SSM    OH120634  35.875  25.144   7.747
 1694SSM    AM220635  35.740  24.899   7.643
 1694SSM    T1A20636  36.044  25.170   7.451
 1694SSM    C2A20637  36.067  25.152   7.062
 1694SSM    C3A20638  35.967  25.059   6.608
 1694SSM    C4A20639  35.810  24.869   6.178
 1694SSM    C1B20640  35.845  24.696   7.371
 1694SSM    C2B20641  36.024  24.603   6.883
 1694SSM    C3B20642  35.910  24.431   6.442
 1694SSM    C4B20643  35.715  23.994   6.229
 1695SSM    NC320644  28.778  18.556   7.409
 1695SSM    PO420645  29.122  18.758   7.389
 1695SSM    OH120646  29.178  18.651   7.050
 1695SSM    AM220647  28.923  18.599   6.933
 1695SSM    T1A20648  29.316  18.621   6.732
 1695SSM    C2A20649  29.332  18.419   6.390
 1695SSM    C3A20650  29.325  18.314   5.947
 1695SSM    C4A20651  29.294  18.175   5.472
 1695SSM    C1B20652  28.870  18.440   6.567
 1695SSM    C2B20653  28.824  18.326   6.031
 1695SSM    C3B20654  28.788  18.113   5.565
 1695SSM    C4B20655  28.473  17.785   5.408
 1696SSM    NC320656  16.046  26.690   7.321
 1696SSM    PO420657  15.925  27.057   7.391
 1696SSM    OH120658  15.611  27.195   7.273
 1696SSM    AM220659  15.700  27.466   7.278
 1696SSM    T1A20660  15.443  27.231   6.955
 1696SSM    C2A20661  15.377  27.011   6.645
 1696SSM    C3A20662  15.716  26.741   6.399
 1696SSM    C4A20663  15.516  26.743   5.949
 1696SSM    C1B20664  15.742  27.896   7.072
 1696SSM    C2B20665  15.630  28.132   6.584
 1696SSM    C3B20666  15.516  28.168   6.127
 1696SSM    C4B20667  15.400  28.171   5.659
 1697SSM    NC320668  27.864  34.415   7.834
 1697SSM    PO420669  27.558  34.302   7.640
 1697SSM    OH120670  27.487  34.414   7.281
 1697SSM    AM220671  27.737  34.589   7.279
 1697SSM    T1A20672  27.467  34.479   6.953
 1697SSM    C2A20673  27.393  34.577   6.571
 1697SSM    C3A20674  27.259  34.562   6.108
 1697SSM    C4A20675  27.199  34.739   5.642
 1697SSM    C1B20676  27.969  34.631   6.926
 1697SSM    C2B20677  28.188  34.502   6.422
 1697SSM    C3B20678  28.431  34.595   6.037
 1697SSM    C4B20679  28.697  34.805   5.704
 1698SSM    NC320680   3.796  11.637   7.793
 1698SSM    PO420681   3.412  11.712   7.802
 1698SSM    OH120682   3.317  11.923   7.547
 1698SSM    AM220683   3.502  11.802   7.345
 1698SSM    T1A20684   3.249  12.148   7.294
 1698SSM    C2A20685   3.267  12.395   6.991
 1698SSM    C3A20686   3.197  12.600   6.540
 1698SSM    C4A20687   2.955  12.801   6.130
 1698SSM    C1B20688   3.647  11.770   7.007
 1698SSM    C2B20689   3.961  11.966   6.650
 1698SSM    C3B20690   4.194  11.970   6.242
 1698SSM    C4B20691   4.419  11.778   5.805
 1699SSM    NC320692  28.873   4.417   7.854
 1699SSM    PO420693  28.868   4.051   7.673
 1699SSM    OH120694  28.736   3.905   7.338
 1699SSM    AM220695  28.907   4.077   7.164
 1699SSM    T1A20696  28.632   3.838   7.005
 1699SSM    C2A20697  28.676   3.781   6.577
 1699SSM    C3A20698  28.637   3.803   6.096
 1699SSM    C4A20699  28.718   3.998   5.669
 1699SSM    C1B20700  28.924   4.184   6.753
 1699SSM    C2B20701  28.791   4.273   6.321
 1699SSM    C3B20702  28.569   4.413   5.935
 1699SSM    C4B20703  28.346   4.551   5.607
 1700SSM    NC320704   0.482   2.195   7.552
 1700SSM    PO420705   0.123   2.264   7.472
 1700SSM    OH120706   0.189   2.476   7.230
 1700SSM    AM220707  -0.102   2.559   7.183
 1700SSM    T1A20708   0.244   2.445   6.894
 1700SSM    C2A20709   0.365   2.510   6.517
 1700SSM    C3A20710   0.620   2.547   6.057
 1700SSM    C4A20711   0.991   2.669   5.751
 1700SSM    C1B20712  -0.158   2.773   6.851
 1700SSM    C2B20713  -0.481   3.073   6.505
 1700SSM    C3B20714  -0.805   3.063   6.094
 1700SSM    C4B20715  -0.769   2.866   5.601
 1701SSM    NC320716  24.229  22.729   7.550
 1701SSM    PO420717  24.544  22.947   7.458
 1701SSM    OH120718  24.473  22.742   7.172
 1701SSM    AM220719  24.190  22.883   7.101
 1701SSM    T1A20720  24.537  22.631   6.848
 1701SSM    C2A20721  24.537  22.675   6.506
 1701SSM    C3A20722  24.494  22.649   6.064
 1701SSM    C4A20723  24.550  22.572   5.615
 1701SSM    C1B20724  24.048  22.762   6.748
 1701SSM    C2B20725  23.994  22.661   6.261
 1701SSM    C3B20726  23.834  22.434   5.889
 1701SSM    C4B20727  24.156  22.305   5.565
 1702SSM    NC320728  19.394  19.159   8.386
 1702SSM    PO420729  19.506  18.830   8.220
 1702SSM    OH120730  19.345  18.963   7.899
 1702SSM    AM220731  19.467  18.720   7.741
 1702SSM    T1A20732  19.366  19.142   7.597
 1702SSM    C2A20733  19.471  19.246   7.197
 1702SSM    C3A20734  19.462  19.186   6.790
 1702SSM    C4A20735  19.589  19.128   6.309
 1702SSM    C1B20736  19.564  18.549   7.339
 1702SSM    C2B20737  19.518  18.606   6.806
 1702SSM    C3B20738  19.424  18.696   6.345
 1702SSM    C4B20739  19.340  18.771   5.826
 1703SSM    NC320740  16.710   6.458   7.996
 1703SSM    PO420741  16.798   6.779   7.780
 1703SSM    OH120742  16.850   6.776   7.435
 1703SSM    AM220743  16.558   6.813   7.340
 1703SSM    T1A20744  16.980   6.740   7.117
 1703SSM    C2A20745  17.105   6.550   6.770
 1703SSM    C3A20746  17.283   6.441   6.337
 1703SSM    C4A20747  17.335   6.288   5.862
 1703SSM    C1B20748  16.343   6.706   7.015
 1703SSM    C2B20749  16.334   6.636   6.545
 1703SSM    C3B20750  16.297   6.523   6.119
 1703SSM    C4B20751  16.184   6.247   5.686
 1704SSM    NC320752  27.375  10.881   8.524
 1704SSM    PO420753  27.394  10.578   8.296
 1704SSM    OH120754  27.338  10.643   7.939
 1704SSM    AM220755  27.507  10.914   7.948
 1704SSM    T1A20756  27.338  10.623   7.598
 1704SSM    C2A20757  27.173  10.784   7.247
 1704SSM    C3A20758  27.159  10.911   6.783
 1704SSM    C4A20759  27.297  11.023   6.365
 1704SSM    C1B20760  27.733  11.014   7.544
 1704SSM    C2B20761  27.837  11.310   7.124
 1704SSM    C3B20762  27.777  11.413   6.714
 1704SSM    C4B20763  27.618  11.589   6.290
 1705SSM    NC320764  13.251  11.015   7.523
 1705SSM    PO420765  12.992  11.254   7.366
 1705SSM    OH120766  12.947  11.217   6.971
 1705SSM    AM220767  13.108  10.965   7.023
 1705SSM    T1A20768  12.969  11.119   6.637
 1705SSM    C2A20769  13.144  11.081   6.272
 1705SSM    C3A20770  13.291  11.026   5.791
 1705SSM    C4A20771  13.317  11.191   5.317
 1705SSM    C1B20772  13.202  10.732   6.711
 1705SSM    C2B20773  13.482  10.564   6.313
 1705SSM    C3B20774  13.630  10.559   5.811
 1705SSM    C4B20775  13.487  10.667   5.307
 1706SSM    NC320776   9.505  21.320   7.601
 1706SSM    PO420777   9.607  21.284   7.211
 1706SSM    OH120778   9.519  21.052   6.927
 1706SSM    AM220779   9.729  21.166   6.752
 1706SSM    T1A20780   9.382  20.987   6.588
 1706SSM    C2A20781   9.239  20.916   6.223
 1706SSM    C3A20782   9.267  20.889   5.720
 1706SSM    C4A20783   9.366  20.694   5.267
 1706SSM    C1B20784   9.973  21.120   6.410
 1706SSM    C2B20785  10.158  21.212   5.995
 1706SSM    C3B20786  10.498  21.129   5.670
 1706SSM    C4B20787  10.518  20.954   5.213
 1707SSM    NC320788  21.368  15.067   7.540
 1707SSM    PO420789  21.585  15.407   7.615
 1707SSM    OH120790  21.487  15.696   7.394
 1707SSM    AM220791  21.702  15.627   7.184
 1707SSM    T1A20792  21.364  15.827   7.107
 1707SSM    C2A20793  21.585  16.094   6.963
 1707SSM    C3A20794  21.624  16.554   6.753
 1707SSM    C4A20795  21.805  17.024   6.664
 1707SSM    C1B20796  21.884  15.491   6.867
 1707SSM    C2B20797  21.989  15.468   6.325
 1707SSM    C3B20798  22.295  15.488   5.928
 1707SSM    C4B20799  22.497  15.375   5.468
 1708SSM    NC320800  36.014  25.644   8.088
 1708SSM    PO420801  35.758  25.582   7.800
 1708SSM    OH120802  35.862  25.591   7.459
 1708SSM    AM220803  35.633  25.765   7.391
 1708SSM    T1A20804  35.806  25.517   7.122
 1708SSM    C2A20805  35.784  25.467   6.733
 1708SSM    C3A20806  35.898  25.398   6.269
 1708SSM    C4A20807  36.078  25.309   5.785
 1708SSM    C1B20808  35.487  25.870   7.045
 1708SSM    C2B20809  35.470  25.968   6.510
 1708SSM    C3B20810  35.612  25.836   6.080
 1708SSM    C4B20811  35.855  25.775   5.702
 1709SSM    NC320812  35.788  31.717   7.485
 1709SSM    PO420813  35.783  32.011   7.710
 1709SSM    OH120814  36.063  32.194   7.509
 1709SSM    AM220815  35.864  32.169   7.285
 1709SSM    T1A20816  36.294  32.207   7.242
 1709SSM    C2A20817  36.272  32.288   6.831
 1709SSM    C3A20818  36.420  32.406   6.341
 1709SSM    C4A20819  36.276  32.250   5.901
 1709SSM    C1B20820  35.781  32.296   6.909
 1709SSM    C2B20821  35.950  32.512   6.518
 1709SSM    C3B20822  35.864  32.468   6.080
 1709SSM    C4B20823  35.764  32.235   5.654
 1710SSM    NC320824  22.546  15.099   7.957
 1710SSM    PO420825  22.318  14.865   7.731
 1710SSM    OH120826  22.234  14.913   7.365
 1710SSM    AM220827  22.431  14.724   7.246
 1710SSM    T1A20828  22.144  15.007   7.021
 1710SSM    C2A20829  22.210  15.158   6.689
 1710SSM    C3A20830  22.302  15.064   6.241
 1710SSM    C4A20831  22.226  15.018   5.735
 1710SSM    C1B20832  22.506  14.670   6.855
 1710SSM    C2B20833  22.563  14.642   6.364
 1710SSM    C3B20834  22.618  14.859   5.948
 1710SSM    C4B20835  22.756  14.845   5.516
 1711SSM    NC320836  13.047  25.448   7.435
 1711SSM    PO420837  12.894  25.129   7.213
 1711SSM    OH120838  13.082  25.150   6.891
 1711SSM    AM220839  12.834  25.102   6.708
 1711SSM    T1A20840  13.220  24.993   6.618
 1711SSM    C2A20841  13.510  24.927   6.315
 1711SSM    C3A20842  13.723  25.136   5.982
 1711SSM    C4A20843  13.644  25.311   5.526
 1711SSM    C1B20844  12.716  24.994   6.434
 1711SSM    C2B20845  12.558  25.013   5.934
 1711SSM    C3B20846  12.182  25.050   5.527
 1711SSM    C4B20847  11.756  25.230   5.327
 1712SSM    NC320848  20.404   1.315   7.733
 1712SSM    PO420849  20.199   1.033   7.631
 1712SSM    OH120850  20.252   0.938   7.260
 1712SSM    AM220851  20.058   1.163   7.171
 1712SSM    T1A20852  20.237   0.792   6.939
 1712SSM    C2A20853  20.151   0.679   6.579
 1712SSM    C3A20854  20.054   0.445   6.170
 1712SSM    C4A20855  19.878   0.215   5.751
 1712SSM    C1B20856  19.954   1.181   6.782
 1712SSM    C2B20857  19.850   1.064   6.354
 1712SSM    C3B20858  20.069   1.078   5.893
 1712SSM    C4B20859  20.307   1.048   5.441
 1713SSM    NC320860  34.773  32.174   8.259
 1713SSM    PO420861  34.413  32.233   8.161
 1713SSM    OH120862  34.226  32.190   7.823
 1713SSM    AM220863  34.459  32.026   7.723
 1713SSM    T1A20864  34.086  32.133   7.503
 1713SSM    C2A20865  34.329  32.097   7.199
 1713SSM    C3A20866  34.540  32.084   6.807
 1713SSM    C4A20867  34.587  32.170   6.397
 1713SSM    C1B20868  34.610  31.782   7.485
 1713SSM    C2B20869  34.469  31.574   7.086
 1713SSM    C3B20870  34.417  31.326   6.665
 1713SSM    C4B20871  34.331  30.881   6.366
 1714SSM    NC320872  25.634  31.887   7.435
 1714SSM    PO420873  25.842  31.699   7.154
 1714SSM    OH120874  25.826  31.864   6.835
 1714SSM    AM220875  25.656  31.680   6.725
 1714SSM    T1A20876  25.801  32.015   6.504
 1714SSM    C2A20877  25.801  32.016   6.095
 1714SSM    C3A20878  26.145  32.008   5.767
 1714SSM    C4A20879  26.481  31.710   5.628
 1714SSM    C1B20880  25.466  31.488   6.461
 1714SSM    C2B20881  25.403  31.428   5.916
 1714SSM    C3B20882  25.239  31.388   5.497
 1714SSM    C4B20883  25.031  31.282   5.034
 1715SSM    NC320884  31.021   6.578   7.654
 1715SSM    PO420885  30.818   6.871   7.450
 1715SSM    OH120886  30.788   7.135   7.157
 1715SSM    AM220887  31.089   7.156   7.176
 1715SSM    T1A20888  30.849   7.218   6.845
 1715SSM    C2A20889  30.941   7.321   6.476
 1715SSM    C3A20890  30.921   7.526   6.012
 1715SSM    C4A20891  31.016   7.956   6.146
 1715SSM    C1B20892  31.278   7.134   6.778
 1715SSM    C2B20893  31.423   7.140   6.397
 1715SSM    C3B20894  31.453   7.176   5.889
 1715SSM    C4B20895  31.591   7.118   5.418
 1716SSM    NC320896  30.242  16.353   7.903
 1716SSM    PO420897  30.454  16.174   7.617
 1716SSM    OH120898  30.298  16.053   7.266
 1716SSM    AM220899  30.591  16.124   7.205
 1716SSM    T1A20900  30.335  15.855   7.005
 1716SSM    C2A20901  30.459  15.853   6.598
 1716SSM    C3A20902  30.571  15.898   6.156
 1716SSM    C4A20903  30.705  15.833   5.658
 1716SSM    C1B20904  30.796  16.119   6.921
 1716SSM    C2B20905  31.014  16.088   6.436
 1716SSM    C3B20906  31.091  16.026   5.933
 1716SSM    C4B20907  31.218  15.799   5.489
 1717SSM    NC320908   7.890  21.751   7.644
 1717SSM    PO420909   7.768  21.822   7.285
 1717SSM    OH120910   7.924  21.917   6.932
 1717SSM    AM220911   7.898  21.628   6.847
 1717SSM    T1A20912   8.013  21.943   6.615
 1717SSM    C2A20913   8.193  21.992   6.303
 1717SSM    C3A20914   8.426  21.965   5.844
 1717SSM    C4A20915   8.647  22.007   5.343
 1717SSM    C1B20916   7.862  21.346   6.637
 1717SSM    C2B20917   7.940  21.221   6.141
 1717SSM    C3B20918   7.859  21.237   5.742
 1717SSM    C4B20919   8.027  21.267   5.321
 1718SSM    NC320920  19.460  16.132   7.751
 1718SSM    PO420921  19.188  15.864   7.688
 1718SSM    OH120922  19.134  15.684   7.363
 1718SSM    AM220923  19.371  15.777   7.213
 1718SSM    T1A20924  18.988  15.578   7.078
 1718SSM    C2A20925  18.839  15.333   6.771
 1718SSM    C3A20926  18.849  15.040   6.384
 1718SSM    C4A20927  18.610  14.984   5.945
 1718SSM    C1B20928  19.521  15.815   6.880
 1718SSM    C2B20929  19.367  15.882   6.381
 1718SSM    C3B20930  19.416  15.726   5.912
 1718SSM    C4B20931  19.361  15.442   5.462
 1719SSM    NC320932  19.507  28.596   7.331
 1719SSM    PO420933  19.796  28.845   7.391
 1719SSM    OH120934  19.584  29.041   7.188
 1719SSM    AM220935  19.588  28.849   6.941
 1719SSM    T1A20936  19.521  29.267   6.928
 1719SSM    C2A20937  19.425  29.402   6.582
 1719SSM    C3A20938  19.007  29.337   6.419
 1719SSM    C4A20939  18.697  29.454   6.106
 1719SSM    C1B20940  19.560  28.583   6.683
 1719SSM    C2B20941  19.513  28.593   6.178
 1719SSM    C3B20942  19.501  28.509   5.680
 1719SSM    C4B20943  19.403  28.555   5.204
 1720SSM    NC320944  18.432  24.884   7.791
 1720SSM    PO420945  18.455  24.517   7.765
 1720SSM    OH120946  18.584  24.471   7.426
 1720SSM    AM220947  18.426  24.728   7.356
 1720SSM    T1A20948  18.695  24.524   7.114
 1720SSM    C2A20949  18.636  24.330   6.767
 1720SSM    C3A20950  18.701  24.227   6.290
 1720SSM    C4A20951  18.672  23.895   5.918
 1720SSM    C1B20952  18.356  24.913   7.097
 1720SSM    C2B20953  18.303  25.062   6.647
 1720SSM    C3B20954  18.469  25.077   6.232
 1720SSM    C4B20955  18.634  25.338   5.818
 1721SSM    NC320956   7.560  18.378   7.783
 1721SSM    PO420957   7.561  18.661   7.537
 1721SSM    OH120958   7.658  18.668   7.193
 1721SSM    AM220959   7.643  18.995   7.214
 1721SSM    T1A20960   7.593  18.750   6.847
 1721SSM    C2A20961   7.615  18.936   6.541
 1721SSM    C3A20962   7.599  19.076   6.105
 1721SSM    C4A20963   7.627  19.388   5.761
 1721SSM    C1B20964   7.711  19.325   6.985
 1721SSM    C2B20965   7.668  19.415   6.534
 1721SSM    C3B20966   7.487  19.619   6.188
 1721SSM    C4B20967   7.316  19.817   5.784
 1722SSM    NC320968  34.658  10.292   8.002
 1722SSM    PO420969  34.462  10.427   7.704
 1722SSM    OH120970  34.509  10.556   7.347
 1722SSM    AM220971  34.510  10.278   7.207
 1722SSM    T1A20972  34.647  10.640   7.021
 1722SSM    C2A20973  34.755  10.650   6.644
 1722SSM    C3A20974  34.832  10.722   6.190
 1722SSM    C4A20975  34.826  10.753   5.667
 1722SSM    C1B20976  34.747  10.071   6.941
 1722SSM    C2B20977  34.652  10.137   6.417
 1722SSM    C3B20978  34.810  10.176   5.955
 1722SSM    C4B20979  34.968  10.205   5.500
 1723SSM    NC320980  27.975   8.552   7.834
 1723SSM    PO420981  28.120   8.174   7.797
 1723SSM    OH120982  28.147   8.209   7.464
 1723SSM    AM220983  27.882   8.342   7.416
 1723SSM    T1A20984  28.146   8.199   7.129
 1723SSM    C2A20985  28.087   8.131   6.700
 1723SSM    C3A20986  27.961   8.141   6.234
 1723SSM    C4A20987  27.758   8.065   5.869
 1723SSM    C1B20988  27.705   8.463   7.155
 1723SSM    C2B20989  27.690   8.529   6.662
 1723SSM    C3B20990  27.690   8.595   6.217
 1723SSM    C4B20991  27.697   8.570   5.717
 1724SSM    NC320992  16.285  17.658   8.127
 1724SSM    PO420993  16.107  17.328   8.011
 1724SSM    OH120994  16.249  17.234   7.681
 1724SSM    AM220995  15.978  17.107   7.610
 1724SSM    T1A20996  16.222  17.359   7.353
 1724SSM    C2A20997  16.202  17.398   6.948
 1724SSM    C3A20998  16.093  17.533   6.511
 1724SSM    C4A20999  16.048  17.729   6.073
 1724SSM    C1B21000  15.806  17.073   7.278
 1724SSM    C2B21001  15.735  17.134   6.785
 1724SSM    C3B21002  15.670  17.375   6.329
 1724SSM    C4B21003  15.559  17.413   5.863
 1725SSM    NC321004  13.969  11.392   8.136
 1725SSM    PO421005  14.100  11.145   7.856
 1725SSM    OH121006  14.347  11.030   7.581
 1725SSM    AM221007  14.226  11.230   7.385
 1725SSM    T1A21008  14.512  10.892   7.333
 1725SSM    C2A21009  14.466  10.824   6.931
 1725SSM    C3A21010  14.526  10.747   6.435
 1725SSM    C4A21011  14.714  10.791   5.968
 1725SSM    C1B21012  14.123  11.214   7.099
 1725SSM    C2B21013  14.152  11.222   6.579
 1725SSM    C3B21014  14.266  11.131   6.105
 1725SSM    C4B21015  14.518  11.163   5.724
 1726SSM    NC321016  17.411  35.224   7.531
 1726SSM    PO421017  17.513  34.886   7.392
 1726SSM    OH121018  17.763  34.921   7.132
 1726SSM    AM221019  17.761  35.211   7.073
 1726SSM    T1A21020  17.804  34.913   6.786
 1726SSM    C2A21021  17.890  34.936   6.354
 1726SSM    C3A21022  17.711  35.031   5.977
 1726SSM    C4A21023  17.392  34.779   5.556
 1726SSM    C1B21024  17.892  35.329   6.783
 1726SSM    C2B21025  17.920  35.435   6.295
 1726SSM    C3B21026  17.832  35.511   5.810
 1726SSM    C4B21027  17.882  35.737   5.358
 1727SSM    NC321028  10.960  22.264   6.870
 1727SSM    PO421029  10.774  22.515   7.113
 1727SSM    OH121030  10.949  22.714   6.818
 1727SSM    AM221031  10.732  22.622   6.621
 1727SSM    T1A21032  11.164  22.678   6.545
 1727SSM    C2A21033  11.378  22.548   6.213
 1727SSM    C3A21034  11.499  22.403   5.815
 1727SSM    C4A21035  11.536  22.655   5.416
 1727SSM    C1B21036  10.485  22.648   6.294
 1727SSM    C2B21037  10.621  22.601   5.856
 1727SSM    C3B21038  10.594  22.495   5.305
 1727SSM    C4B21039  10.650  22.574   4.849
 1728SSM    NC321040  17.189  11.398   7.565
 1728SSM    PO421041  17.284  11.035   7.591
 1728SSM    OH121042  17.107  10.823   7.356
 1728SSM    AM221043  16.986  11.082   7.208
 1728SSM    T1A21044  17.150  10.659   7.069
 1728SSM    C2A21045  16.957  10.776   6.783
 1728SSM    C3A21046  16.882  10.706   6.348
 1728SSM    C4A21047  16.610  10.479   6.036
 1728SSM    C1B21048  16.780  11.189   6.895
 1728SSM    C2B21049  16.656  11.134   6.464
 1728SSM    C3B21050  16.658  11.017   6.003
 1728SSM    C4B21051  16.738  11.070   5.541
 1729SSM    NC321052  31.644  25.321   7.452
 1729SSM    PO421053  31.797  25.650   7.597
 1729SSM    OH121054  32.045  25.742   7.294
 1729SSM    AM221055  32.284  25.796   7.466
 1729SSM    T1A21056  32.294  25.816   7.040
 1729SSM    C2A21057  32.555  25.671   6.810
 1729SSM    C3A21058  32.663  25.540   6.361
 1729SSM    C4A21059  32.730  25.654   5.905
 1729SSM    C1B21060  32.625  25.665   7.304
 1729SSM    C2B21061  33.030  25.685   6.945
 1729SSM    C3B21062  33.212  25.741   6.519
 1729SSM    C4B21063  33.211  25.869   6.052
 1730SSM    NC321064  31.166  22.820   7.478
 1730SSM    PO421065  31.177  22.475   7.250
 1730SSM    OH121066  31.210  22.713   6.961
 1730SSM    AM221067  31.268  22.471   6.778
 1730SSM    T1A21068  31.159  22.889   6.672
 1730SSM    C2A21069  30.961  22.775   6.315
 1730SSM    C3A21070  30.743  22.944   5.884
 1730SSM    C4A21071  30.430  23.310   5.676
 1730SSM    C1B21072  31.253  22.327   6.428
 1730SSM    C2B21073  30.880  22.253   6.091
 1730SSM    C3B21074  30.758  22.501   5.665
 1730SSM    C4B21075  30.478  22.824   5.432
 1731SSM    NC321076  27.085  22.120   7.588
 1731SSM    PO421077  27.360  21.816   7.542
 1731SSM    OH121078  27.500  21.586   7.238
 1731SSM    AM221079  27.356  21.706   7.063
 1731SSM    T1A21080  27.690  21.482   6.939
 1731SSM    C2A21081  27.682  21.366   6.555
 1731SSM    C3A21082  27.880  21.155   6.158
 1731SSM    C4A21083  27.978  21.113   5.675
 1731SSM    C1B21084  27.231  21.764   6.755
 1731SSM    C2B21085  27.167  21.784   6.250
 1731SSM    C3B21086  27.107  21.686   5.793
 1731SSM    C4B21087  26.999  21.564   5.278
 1732SSM    NC321088  24.884  22.581   7.468
 1732SSM    PO421089  24.551  22.334   7.553
 1732SSM    OH121090  24.372  22.266   7.240
 1732SSM    AM221091  24.637  22.293   7.098
 1732SSM    T1A21092  24.222  22.369   6.935
 1732SSM    C2A21093  24.214  22.273   6.531
 1732SSM    C3A21094  24.232  22.174   6.091
 1732SSM    C4A21095  24.541  22.062   5.727
 1732SSM    C1B21096  24.761  22.127   6.763
 1732SSM    C2B21097  24.735  22.209   6.316
 1732SSM    C3B21098  24.933  22.282   5.863
 1732SSM    C4B21099  25.116  22.384   5.465
 1733SSM    NC321100  32.359  25.579   7.821
 1733SSM    PO421101  32.458  25.256   7.995
 1733SSM    OH121102  32.497  25.019   7.757
 1733SSM    AM221103  32.718  25.151   7.580
 1733SSM    T1A21104  32.394  24.856   7.456
 1733SSM    C2A21105  32.556  24.655   7.152
 1733SSM    C3A21106  32.601  24.552   6.682
 1733SSM    C4A21107  32.665  24.537   6.234
 1733SSM    C1B21108  32.860  25.187   7.199
 1733SSM    C2B21109  33.032  25.208   6.720
 1733SSM    C3B21110  33.201  25.251   6.304
 1733SSM    C4B21111  33.361  25.259   5.817
 1734SSM    NC321112   2.410  18.338   7.518
 1734SSM    PO421113   2.543  18.724   7.566
 1734SSM    OH121114   2.358  18.908   7.294
 1734SSM    AM221115   2.274  18.646   7.190
 1734SSM    T1A21116   2.271  19.028   6.997
 1734SSM    C2A21117   2.103  18.949   6.621
 1734SSM    C3A21118   1.895  18.982   6.176
 1734SSM    C4A21119   1.628  18.932   5.804
 1734SSM    C1B21120   2.182  18.483   6.815
 1734SSM    C2B21121   1.986  18.263   6.348
 1734SSM    C3B21122   1.739  18.204   5.914
 1734SSM    C4B21123   1.912  17.955   5.497
 1735SSM    NC321124  13.469  27.771   7.859
 1735SSM    PO421125  13.090  27.663   7.784
 1735SSM    OH121126  13.029  27.661   7.401
 1735SSM    AM221127  13.288  27.798   7.358
 1735SSM    T1A21128  12.961  27.728   7.073
 1735SSM    C2A21129  12.802  27.900   6.760
 1735SSM    C3A21130  12.707  27.935   6.286
 1735SSM    C4A21131  12.729  27.779   5.802
 1735SSM    C1B21132  13.504  27.958   7.072
 1735SSM    C2B21133  13.691  27.869   6.593
 1735SSM    C3B21134  13.951  27.865   6.150
 1735SSM    C4B21135  14.354  27.989   5.887
 1736SSM    NC321136  22.221  10.957   7.523
 1736SSM    PO421137  22.477  11.293   7.625
 1736SSM    OH121138  22.773  11.242   7.375
 1736SSM    AM221139  22.557  11.166   7.206
 1736SSM    T1A21140  22.978  11.237   7.091
 1736SSM    C2A21141  22.829  11.062   6.792
 1736SSM    C3A21142  22.643  10.879   6.449
 1736SSM    C4A21143  22.482  10.613   6.050
 1736SSM    C1B21144  22.287  10.953   6.921
 1736SSM    C2B21145  22.013  10.622   6.575
 1736SSM    C3B21146  21.854  10.234   6.297
 1736SSM    C4B21147  21.597  10.010   5.896
 1737SSM    NC321148   7.408  26.182   6.799
 1737SSM    PO421149   7.086  26.251   6.983
 1737SSM    OH121150   6.865  26.337   6.722
 1737SSM    AM221151   6.930  26.147   6.515
 1737SSM    T1A21152   6.711  26.490   6.421
 1737SSM    C2A21153   6.683  26.826   6.189
 1737SSM    C3A21154   6.614  27.090   5.759
 1737SSM    C4A21155   6.531  27.329   5.337
 1737SSM    C1B21156   6.853  26.083   6.157
 1737SSM    C2B21157   6.848  26.009   5.626
 1737SSM    C3B21158   6.799  25.989   5.179
 1737SSM    C4B21159   6.629  26.068   4.667
 1738SSM    NC321160  21.353   0.580   7.834
 1738SSM    PO421161  21.682   0.544   7.657
 1738SSM    OH121162  21.388   0.503   7.361
 1738SSM    AM221163  21.416   0.806   7.351
 1738SSM    T1A21164  21.162   0.558   7.113
 1738SSM    C2A21165  21.101   0.670   6.750
 1738SSM    C3A21166  21.004   0.755   6.269
 1738SSM    C4A21167  20.745   0.925   5.855
 1738SSM    C1B21168  21.144   1.014   7.120
 1738SSM    C2B21169  21.130   1.150   6.635
 1738SSM    C3B21170  21.078   1.230   6.171
 1738SSM    C4B21171  21.039   1.260   5.665
 1739SSM    NC321172  20.973   3.655   7.771
 1739SSM    PO421173  21.293   3.510   7.617
 1739SSM    OH121174  21.212   3.539   7.237
 1739SSM    AM221175  21.184   3.245   7.232
 1739SSM    T1A21176  21.290   3.462   6.911
 1739SSM    C2A21177  21.380   3.338   6.513
 1739SSM    C3A21178  21.502   3.483   6.040
 1739SSM    C4A21179  21.724   3.455   5.631
 1739SSM    C1B21180  21.098   2.994   6.915
 1739SSM    C2B21181  21.070   2.695   6.431
 1739SSM    C3B21182  21.159   2.534   5.996
 1739SSM    C4B21183  21.426   2.338   5.591
 1740SSM    NC321184   7.515   5.230   7.406
 1740SSM    PO421185   7.676   4.857   7.397
 1740SSM    OH121186   7.705   4.792   7.008
 1740SSM    AM221187   7.674   4.486   7.057
 1740SSM    T1A21188   7.771   4.684   6.707
 1740SSM    C2A21189   7.856   4.710   6.343
 1740SSM    C3A21190   7.841   4.688   5.845
 1740SSM    C4A21191   7.733   4.620   5.433
 1740SSM    C1B21192   7.661   4.187   6.791
 1740SSM    C2B21193   7.606   4.125   6.272
 1740SSM    C3B21194   7.584   3.925   5.815
 1740SSM    C4B21195   7.816   3.743   5.367
 1741SSM    NC321196   3.325   3.185   7.721
 1741SSM    PO421197   3.342   3.397   7.356
 1741SSM    OH121198   3.280   3.343   7.036
 1741SSM    AM221199   3.289   3.615   6.892
 1741SSM    T1A21200   3.407   3.217   6.752
 1741SSM    C2A21201   3.370   3.197   6.358
 1741SSM    C3A21202   3.415   3.182   5.868
 1741SSM    C4A21203   3.551   3.159   5.470
 1741SSM    C1B21204   3.304   3.688   6.520
 1741SSM    C2B21205   3.502   3.761   6.036
 1741SSM    C3B21206   3.798   3.587   5.636
 1741SSM    C4B21207   4.022   3.897   5.403
 1742SSM    NC321208  14.890  18.091   8.162
 1742SSM    PO421209  15.151  18.158   7.862
 1742SSM    OH121210  15.206  18.434   7.632
 1742SSM    AM221211  15.477  18.379   7.546
 1742SSM    T1A21212  15.187  18.674   7.382
 1742SSM    C2A21213  15.299  18.793   7.029
 1742SSM    C3A21214  15.270  19.012   6.599
 1742SSM    C4A21215  15.285  19.117   6.140
 1742SSM    C1B21216  15.553  18.358   7.178
 1742SSM    C2B21217  15.526  18.596   6.674
 1742SSM    C3B21218  15.698  18.772   6.204
 1742SSM    C4B21219  15.954  18.766   5.809
 1743SSM    NC321220  17.431  28.041   7.550
 1743SSM    PO421221  17.381  27.651   7.442
 1743SSM    OH121222  17.128  27.447   7.301
 1743SSM    AM221223  17.284  27.220   7.228
 1743SSM    T1A21224  16.965  27.578   7.020
 1743SSM    C2A21225  17.031  27.549   6.650
 1743SSM    C3A21226  16.954  27.569   6.093
 1743SSM    C4A21227  16.753  27.762   5.681
 1743SSM    C1B21228  17.355  27.259   6.857
 1743SSM    C2B21229  17.327  27.249   6.369
 1743SSM    C3B21230  17.365  26.901   6.009
 1743SSM    C4B21231  17.526  27.022   5.529
 1744SSM    NC321232  33.468  14.505   8.000
 1744SSM    PO421233  33.347  14.881   8.072
 1744SSM    OH121234  33.286  15.089   7.784
 1744SSM    AM221235  33.543  15.090   7.659
 1744SSM    T1A21236  33.215  15.275   7.502
 1744SSM    C2A21237  33.049  15.384   7.176
 1744SSM    C3A21238  33.055  15.540   6.827
 1744SSM    C4A21239  33.194  15.587   6.397
 1744SSM    C1B21240  33.815  15.188   7.318
 1744SSM    C2B21241  34.267  15.286   7.036
 1744SSM    C3B21242  34.124  15.424   6.618
 1744SSM    C4B21243  34.011  15.601   6.155
 1745SSM    NC321244  28.681  23.993   7.461
 1745SSM    PO421245  28.584  23.627   7.399
 1745SSM    OH121246  28.833  23.637   7.117
 1745SSM    AM221247  28.656  23.855   6.975
 1745SSM    T1A21248  29.054  23.644   6.861
 1745SSM    C2A21249  29.247  23.743   6.553
 1745SSM    C3A21250  29.326  23.915   6.132
 1745SSM    C4A21251  29.341  24.222   5.747
 1745SSM    C1B21252  28.402  23.808   6.712
 1745SSM    C2B21253  28.286  23.779   6.237
 1745SSM    C3B21254  28.447  23.603   5.812
 1745SSM    C4B21255  28.441  23.385   5.449
 1746SSM    NC321256  13.127  11.933   7.993
 1746SSM    PO421257  13.450  11.953   7.732
 1746SSM    OH121258  13.664  11.695   7.479
 1746SSM    AM221259  13.601  11.941   7.289
 1746SSM    T1A21260  13.789  11.594   7.209
 1746SSM    C2A21261  13.924  11.622   6.814
 1746SSM    C3A21262  14.081  11.669   6.392
 1746SSM    C4A21263  14.249  11.626   5.875
 1746SSM    C1B21264  13.450  12.051   6.976
 1746SSM    C2B21265  13.702  11.948   6.528
 1746SSM    C3B21266  13.735  11.812   6.012
 1746SSM    C4B21267  13.526  11.567   5.638
 1747SSM    NC321268  29.455  13.117   7.778
 1747SSM    PO421269  29.490  13.466   7.634
 1747SSM    OH121270  29.366  13.626   7.262
 1747SSM    AM221271  29.582  13.432   7.172
 1747SSM    T1A21272  29.345  13.713   6.918
 1747SSM    C2A21273  29.435  13.790   6.525
 1747SSM    C3A21274  29.557  13.794   6.118
 1747SSM    C4A21275  29.578  13.570   5.721
 1747SSM    C1B21276  29.800  13.289   6.892
 1747SSM    C2B21277  29.922  13.475   6.442
 1747SSM    C3B21278  30.169  13.526   5.999
 1747SSM    C4B21279  30.436  13.530   5.569
 1748SSM    NC321280  23.242  15.069   7.543
 1748SSM    PO421281  22.947  15.240   7.705
 1748SSM    OH121282  22.840  15.535   7.568
 1748SSM    AM221283  23.073  15.534   7.366
 1748SSM    T1A21284  22.847  15.856   7.488
 1748SSM    C2A21285  22.907  16.068   7.194
 1748SSM    C3A21286  22.975  16.103   6.707
 1748SSM    C4A21287  23.023  16.145   6.237
 1748SSM    C1B21288  23.080  15.614   6.957
 1748SSM    C2B21289  23.160  15.683   6.453
 1748SSM    C3B21290  23.265  15.750   5.992
 1748SSM    C4B21291  23.264  16.068   5.617
 1749SSM    NC321292  27.209  31.928   7.347
 1749SSM    PO421293  27.399  31.679   7.166
 1749SSM    OH121294  27.336  31.333   6.972
 1749SSM    AM221295  27.507  31.463   6.746
 1749SSM    T1A21296  27.237  31.130   6.704
 1749SSM    C2A21297  27.176  31.223   6.335
 1749SSM    C3A21298  27.220  31.277   5.818
 1749SSM    C4A21299  27.344  31.451   5.413
 1749SSM    C1B21300  27.538  31.520   6.405
 1749SSM    C2B21301  27.322  31.728   5.985
 1749SSM    C3B21302  27.441  32.033   5.664
 1749SSM    C4B21303  27.827  32.312   5.428
 1750SSM    NC321304  24.330   3.606   7.867
 1750SSM    PO421305  24.312   3.926   7.643
 1750SSM    OH121306  24.225   3.922   7.273
 1750SSM    AM221307  24.527   3.955   7.208
 1750SSM    T1A21308  24.245   3.723   7.006
 1750SSM    C2A21309  24.309   3.578   6.626
 1750SSM    C3A21310  24.380   3.519   6.161
 1750SSM    C4A21311  24.560   3.714   5.742
 1750SSM    C1B21312  24.660   3.948   6.821
 1750SSM    C2B21313  24.807   4.086   6.369
 1750SSM    C3B21314  24.742   4.198   5.913
 1750SSM    C4B21315  24.677   4.337   5.429
 1751SSM    NC321316  14.792  13.687   7.217
 1751SSM    PO421317  14.545  13.634   6.890
 1751SSM    OH121318  14.244  13.719   6.716
 1751SSM    AM221319  14.411  13.701   6.444
 1751SSM    T1A21320  14.006  13.896   6.579
 1751SSM    C2A21321  13.883  13.899   6.238
 1751SSM    C3A21322  13.628  13.838   5.863
 1751SSM    C4A21323  13.314  13.649   5.565
 1751SSM    C1B21324  14.284  13.649   6.057
 1751SSM    C2B21325  14.233  13.479   5.576
 1751SSM    C3B21326  14.022  13.593   5.119
 1751SSM    C4B21327  13.707  13.737   4.747
 1752SSM    NC321328  18.294   9.174   7.658
 1752SSM    PO421329  18.657   8.993   7.723
 1752SSM    OH121330  18.663   8.774   7.441
 1752SSM    AM221331  18.367   8.740   7.386
 1752SSM    T1A21332  18.690   8.639   7.115
 1752SSM    C2A21333  18.991   8.614   6.892
 1752SSM    C3A21334  18.882   8.869   6.411
 1752SSM    C4A21335  18.570   9.013   6.023
 1752SSM    C1B21336  18.055   8.735   7.195
 1752SSM    C2B21337  17.607   8.807   7.039
 1752SSM    C3B21338  17.247   8.791   6.677
 1752SSM    C4B21339  17.109   8.770   6.233
 1753SSM    NC321340  19.066  23.518   7.444
 1753SSM    PO421341  18.681  23.537   7.500
 1753SSM    OH121342  18.719  23.435   7.153
 1753SSM    AM221343  18.434  23.507   7.053
 1753SSM    T1A21344  18.745  23.349   6.817
 1753SSM    C2A21345  18.643  23.307   6.422
 1753SSM    C3A21346  18.750  23.391   5.982
 1753SSM    C4A21347  18.795  23.593   5.514
 1753SSM    C1B21348  18.171  23.497   6.766
 1753SSM    C2B21349  18.298  23.605   6.290
 1753SSM    C3B21350  18.189  23.657   5.780
 1753SSM    C4B21351  18.057  23.720   5.323
 1754SSM    NC321352   5.740  24.906   7.391
 1754SSM    PO421353   5.383  24.859   7.567
 1754SSM    OH121354   5.249  25.121   7.333
 1754SSM    AM221355   5.286  24.945   7.082
 1754SSM    T1A21356   5.030  25.282   7.119
 1754SSM    C2A21357   4.864  25.502   6.821
 1754SSM    C3A21358   4.723  25.549   6.349
 1754SSM    C4A21359   4.750  25.877   5.982
 1754SSM    C1B21360   5.153  24.957   6.679
 1754SSM    C2B21361   4.908  25.088   6.195
 1754SSM    C3B21362   4.672  25.303   5.834
 1754SSM    C4B21363   4.394  25.616   5.663
 1755SSM    NC321364  12.092  19.733   7.057
 1755SSM    PO421365  12.406  19.618   7.252
 1755SSM    OH121366  12.562  19.692   6.910
 1755SSM    AM221367  12.462  19.408   6.824
 1755SSM    T1A21368  12.689  19.758   6.592
 1755SSM    C2A21369  12.909  19.930   6.264
 1755SSM    C3A21370  12.841  19.899   5.804
 1755SSM    C4A21371  12.673  19.901   5.376
 1755SSM    C1B21372  12.388  19.208   6.475
 1755SSM    C2B21373  12.297  18.922   6.118
 1755SSM    C3B21374  11.977  18.915   5.780
 1755SSM    C4B21375  11.811  18.742   5.385
 1756SSM    NC321376  35.503   0.003   7.785
 1756SSM    PO421377  35.404  -0.191   7.436
 1756SSM    OH121378  35.401  -0.276   7.047
 1756SSM    AM221379  35.374   0.024   6.970
 1756SSM    T1A21380  35.326  -0.322   6.700
 1756SSM    C2A21381  35.442  -0.065   6.371
 1756SSM    C3A21382  35.185   0.040   5.930
 1756SSM    C4A21383  35.008   0.251   5.496
 1756SSM    C1B21384  35.340   0.323   6.668
 1756SSM    C2B21385  35.587   0.781   6.532
 1756SSM    C3B21386  36.091   0.796   6.557
 1756SSM    C4B21387  36.515   1.040   6.577
 1757SSM    NC321388   6.358  25.593   7.484
 1757SSM    PO421389   6.604  25.419   7.240
 1757SSM    OH121390   6.419  25.436   6.915
 1757SSM    AM221391   6.453  25.134   6.897
 1757SSM    T1A21392   6.311  25.509   6.593
 1757SSM    C2A21393   6.486  25.734   6.270
 1757SSM    C3A21394   6.373  25.882   5.850
 1757SSM    C4A21395   6.038  26.159   6.076
 1757SSM    C1B21396   6.586  24.844   6.573
 1757SSM    C2B21397   6.670  24.472   6.225
 1757SSM    C3B21398   6.717  24.253   5.741
 1757SSM    C4B21399   7.048  24.113   5.388
 1758SSM    NC321400  11.450   1.435   6.708
 1758SSM    PO421401  11.609   1.682   7.001
 1758SSM    OH121402  11.604   1.965   6.719
 1758SSM    AM221403  11.786   1.744   6.584
 1758SSM    T1A21404  11.617   2.089   6.386
 1758SSM    C2A21405  11.680   2.137   5.979
 1758SSM    C3A21406  11.700   2.245   5.488
 1758SSM    C4A21407  11.979   2.374   5.107
 1758SSM    C1B21408  12.055   1.638   6.346
 1758SSM    C2B21409  12.170   1.355   5.955
 1758SSM    C3B21410  12.292   0.965   5.707
 1758SSM    C4B21411  11.952   0.802   5.341
 1759SSM    NC321412  25.014  15.966   7.932
 1759SSM    PO421413  25.404  15.936   7.851
 1759SSM    OH121414  25.664  15.807   7.582
 1759SSM    AM221415  25.760  16.070   7.501
 1759SSM    T1A21416  25.780  15.737   7.250
 1759SSM    C2A21417  25.708  15.536   6.872
 1759SSM    C3A21418  25.621  15.556   6.451
 1759SSM    C4A21419  25.337  15.391   6.077
 1759SSM    C1B21420  25.588  16.184   7.135
 1759SSM    C2B21421  25.335  16.423   6.804
 1759SSM    C3B21422  25.366  16.630   6.367
 1759SSM    C4B21423  25.302  16.805   5.917
 1760SSM    NC321424  23.514   5.460   8.209
 1760SSM    PO421425  23.323   5.332   7.929
 1760SSM    OH121426  23.454   5.306   7.563
 1760SSM    AM221427  23.237   5.096   7.497
 1760SSM    T1A21428  23.597   5.184   7.265
 1760SSM    C2A21429  23.594   5.066   6.885
 1760SSM    C3A21430  23.299   5.268   6.558
 1760SSM    C4A21431  23.243   5.578   6.164
 1760SSM    C1B21432  23.035   4.913   7.175
 1760SSM    C2B21433  22.879   4.905   6.701
 1760SSM    C3B21434  22.908   4.814   6.191
 1760SSM    C4B21435  22.963   4.891   5.757
 1761SSM    NC321436  25.520  32.745   7.167
 1761SSM    PO421437  25.768  32.524   7.392
 1761SSM    OH121438  26.091  32.637   7.176
 1761SSM    AM221439  25.890  32.644   6.944
 1761SSM    T1A21440  26.334  32.750   6.974
 1761SSM    C2A21441  26.156  32.959   6.674
 1761SSM    C3A21442  26.053  32.964   6.255
 1761SSM    C4A21443  26.099  32.858   5.719
 1761SSM    C1B21444  25.607  32.617   6.668
 1761SSM    C2B21445  25.383  32.610   6.232
 1761SSM    C3B21446  25.171  32.388   5.840
 1761SSM    C4B21447  24.879  32.381   5.449
 1762SSM    NC321448  18.292  21.273   7.765
 1762SSM    PO421449  18.683  21.136   7.892
 1762SSM    OH121450  18.795  20.820   7.718
 1762SSM    AM221451  18.491  20.800   7.651
 1762SSM    T1A21452  18.808  20.637   7.422
 1762SSM    C2A21453  18.995  20.617   7.064
 1762SSM    C3A21454  19.015  20.565   6.562
 1762SSM    C4A21455  19.342  20.728   6.236
 1762SSM    C1B21456  18.315  20.877   7.298
 1762SSM    C2B21457  18.314  20.908   6.752
 1762SSM    C3B21458  18.208  20.993   6.327
 1762SSM    C4B21459  18.291  20.973   5.860
 1763SSM    NC321460  23.353  28.254   7.803
 1763SSM    PO421461  23.456  28.411   7.483
 1763SSM    OH121462  23.628  28.352   7.134
 1763SSM    AM221463  23.526  28.085   7.108
 1763SSM    T1A21464  23.840  28.315   6.857
 1763SSM    C2A21465  24.176  28.163   6.673
 1763SSM    C3A21466  24.223  28.251   6.187
 1763SSM    C4A21467  24.211  28.329   5.711
 1763SSM    C1B21468  23.337  27.869   6.852
 1763SSM    C2B21469  23.129  27.679   6.430
 1763SSM    C3B21470  23.012  27.465   5.982
 1763SSM    C4B21471  22.972  27.508   5.506
 1764SSM    NC321472   4.216   4.558   7.191
 1764SSM    PO421473   4.107   4.175   7.224
 1764SSM    OH121474   4.090   4.082   6.870
 1764SSM    AM221475   3.969   4.360   6.769
 1764SSM    T1A21476   4.142   3.921   6.592
 1764SSM    C2A21477   4.211   3.721   6.240
 1764SSM    C3A21478   4.246   3.592   5.774
 1764SSM    C4A21479   4.356   3.541   5.258
 1764SSM    C1B21480   3.845   4.545   6.587
 1764SSM    C2B21481   3.662   4.525   6.133
 1764SSM    C3B21482   3.647   4.523   5.683
 1764SSM    C4B21483   3.489   4.528   5.316
 1765SSM    NC321484   7.129  17.499   7.741
 1765SSM    PO421485   6.833  17.771   7.640
 1765SSM    OH121486   6.626  17.893   7.306
 1765SSM    AM221487   6.737  17.655   7.185
 1765SSM    T1A21488   6.573  18.023   6.994
 1765SSM    C2A21489   6.604  17.968   6.593
 1765SSM    C3A21490   6.774  17.920   6.133
 1765SSM    C4A21491   7.050  17.743   5.776
 1765SSM    C1B21492   6.631  17.549   6.835
 1765SSM    C2B21493   6.564  17.523   6.376
 1765SSM    C3B21494   6.672  17.457   5.961
 1765SSM    C4B21495   7.037  17.226   5.705
 1766SSM    NC321496   3.313   5.176   7.564
 1766SSM    PO421497   3.653   5.325   7.560
 1766SSM    OH121498   3.629   5.400   7.184
 1766SSM    AM221499   3.794   5.647   7.219
 1766SSM    T1A21500   3.679   5.463   6.850
 1766SSM    C2A21501   3.620   5.426   6.453
 1766SSM    C3A21502   3.491   5.402   5.982
 1766SSM    C4A21503   3.487   5.382   5.485
 1766SSM    C1B21504   4.073   5.747   6.953
 1766SSM    C2B21505   4.184   5.850   6.488
 1766SSM    C3B21506   4.362   5.781   5.993
 1766SSM    C4B21507   4.554   5.635   5.639
 1767SSM    NC321508   3.242  21.323   7.476
 1767SSM    PO421509   3.490  21.566   7.696
 1767SSM    OH121510   3.802  21.584   7.427
 1767SSM    AM221511   3.589  21.471   7.245
 1767SSM    T1A21512   3.982  21.633   7.130
 1767SSM    C2A21513   3.931  21.754   6.759
 1767SSM    C3A21514   3.899  21.738   6.312
 1767SSM    C4A21515   3.595  21.718   5.937
 1767SSM    C1B21516   3.394  21.574   6.964
 1767SSM    C2B21517   3.306  21.569   6.413
 1767SSM    C3B21518   3.110  21.607   5.948
 1767SSM    C4B21519   3.202  21.525   5.444
 1768SSM    NC321520  26.483   3.834   7.954
 1768SSM    PO421521  26.174   3.692   7.727
 1768SSM    OH121522  26.356   3.611   7.381
 1768SSM    AM221523  26.128   3.785   7.258
 1768SSM    T1A21524  26.557   3.788   7.157
 1768SSM    C2A21525  26.554   3.879   6.765
 1768SSM    C3A21526  26.516   3.947   6.314
 1768SSM    C4A21527  26.513   3.913   5.846
 1768SSM    C1B21528  26.112   3.943   6.905
 1768SSM    C2B21529  26.022   4.078   6.422
 1768SSM    C3B21530  26.011   4.071   5.957
 1768SSM    C4B21531  26.022   3.864   5.549
 1769SSM    NC321532  13.449   2.925   7.336
 1769SSM    PO421533  13.163   2.694   7.224
 1769SSM    OH121534  13.185   2.467   6.922
 1769SSM    AM221535  13.372   2.638   6.749
 1769SSM    T1A21536  13.139   2.325   6.629
 1769SSM    C2A21537  13.133   2.306   6.222
 1769SSM    C3A21538  13.054   2.042   5.775
 1769SSM    C4A21539  12.844   1.854   5.339
 1769SSM    C1B21540  13.369   2.793   6.431
 1769SSM    C2B21541  13.262   2.708   5.937
 1769SSM    C3B21542  13.088   2.560   5.542
 1769SSM    C4B21543  12.990   2.376   5.113
 1770SSM    NC321544  26.502  14.896   8.437
 1770SSM    PO421545  26.413  14.967   8.055
 1770SSM    OH121546  26.285  14.800   7.733
 1770SSM    AM221547  26.269  15.087   7.611
 1770SSM    T1A21548  26.319  14.702   7.407
 1770SSM    C2A21549  26.385  14.889   7.055
 1770SSM    C3A21550  26.500  14.958   6.608
 1770SSM    C4A21551  26.246  14.781   6.234
 1770SSM    C1B21552  26.103  15.232   7.273
 1770SSM    C2B21553  26.119  15.260   6.797
 1770SSM    C3B21554  26.151  15.267   6.339
 1770SSM    C4B21555  26.326  15.326   5.893
 1771SSM    NC321556  21.663   3.822   7.252
 1771SSM    PO421557  21.463   4.134   7.228
 1771SSM    OH121558  21.605   4.352   6.977
 1771SSM    AM221559  21.882   4.235   6.968
 1771SSM    T1A21560  21.671   4.459   6.659
 1771SSM    C2A21561  21.771   4.558   6.300
 1771SSM    C3A21562  21.947   4.707   5.947
 1771SSM    C4A21563  22.048   5.012   5.537
 1771SSM    C1B21564  22.081   4.230   6.644
 1771SSM    C2B21565  22.226   4.327   6.130
 1771SSM    C3B21566  22.337   4.462   5.735
 1771SSM    C4B21567  22.483   4.813   5.467
 1772SSM    NC321568   8.077  11.773   7.526
 1772SSM    PO421569   7.804  11.636   7.291
 1772SSM    OH121570   7.952  11.444   6.992
 1772SSM    AM221571   8.043  11.741   6.921
 1772SSM    T1A21572   7.889  11.365   6.650
 1772SSM    C2A21573   7.835  11.488   6.251
 1772SSM    C3A21574   7.656  11.654   5.835
 1772SSM    C4A21575   7.687  12.061   5.635
 1772SSM    C1B21576   8.175  11.857   6.620
 1772SSM    C2B21577   8.132  11.878   6.095
 1772SSM    C3B21578   8.160  12.167   5.702
 1772SSM    C4B21579   8.018  12.341   5.303
 1773SSM    NC321580   1.811  34.982   8.046
 1773SSM    PO421581   1.853  34.937   7.666
 1773SSM    OH121582   1.853  34.556   7.488
 1773SSM    AM221583   1.950  34.703   7.258
 1773SSM    T1A21584   1.757  34.301   7.266
 1773SSM    C2A21585   1.751  34.149   6.911
 1773SSM    C3A21586   1.730  33.986   6.417
 1773SSM    C4A21587   1.765  34.104   5.941
 1773SSM    C1B21588   1.887  34.910   6.976
 1773SSM    C2B21589   2.008  35.234   6.617
 1773SSM    C3B21590   2.259  35.285   6.214
 1773SSM    C4B21591   2.343  35.274   5.726
 1774SSM    NC321592  29.828  17.522   7.725
 1774SSM    PO421593  29.959  17.175   7.579
 1774SSM    OH121594  29.852  16.920   7.315
 1774SSM    AM221595  29.793  17.143   7.101
 1774SSM    T1A21596  29.778  16.763   7.015
 1774SSM    C2A21597  29.790  16.665   6.624
 1774SSM    C3A21598  29.831  16.674   6.173
 1774SSM    C4A21599  29.827  16.536   5.733
 1774SSM    C1B21600  29.756  17.245   6.757
 1774SSM    C2B21601  29.938  17.247   6.292
 1774SSM    C3B21602  29.957  17.197   5.858
 1774SSM    C4B21603  29.988  17.214   5.365
 1775SSM    NC321604   6.508  15.527   7.559
 1775SSM    PO421605   6.786  15.747   7.489
 1775SSM    OH121606   7.063  15.633   7.275
 1775SSM    AM221607   7.125  15.928   7.276
 1775SSM    T1A21608   7.265  15.631   6.988
 1775SSM    C2A21609   7.460  15.363   6.832
 1775SSM    C3A21610   7.608  15.109   6.472
 1775SSM    C4A21611   7.701  15.140   5.982
 1775SSM    C1B21612   7.183  16.190   6.980
 1775SSM    C2B21613   7.384  16.318   6.525
 1775SSM    C3B21614   7.494  16.545   6.180
 1775SSM    C4B21615   7.535  16.463   5.648
 1776SSM    NC321616  17.319  25.983   7.638
 1776SSM    PO421617  17.426  26.342   7.523
 1776SSM    OH121618  17.343  26.247   7.154
 1776SSM    AM221619  17.630  26.129   7.134
 1776SSM    T1A21620  17.232  26.242   6.831
 1776SSM    C2A21621  17.264  26.181   6.468
 1776SSM    C3A21622  17.298  26.232   5.996
 1776SSM    C4A21623  17.195  26.412   5.590
 1776SSM    C1B21624  17.988  26.141   6.967
 1776SSM    C2B21625  18.351  25.833   6.774
 1776SSM    C3B21626  18.819  25.831   6.623
 1776SSM    C4B21627  19.224  25.747   6.451
 1777SSM    NC321628  25.321  22.210   8.214
 1777SSM    PO421629  25.455  22.362   7.872
 1777SSM    OH121630  25.302  22.341   7.536
 1777SSM    AM221631  25.508  22.135   7.448
 1777SSM    T1A21632  25.236  22.393   7.205
 1777SSM    C2A21633  25.274  22.347   6.793
 1777SSM    C3A21634  25.314  22.317   6.354
 1777SSM    C4A21635  25.435  22.134   5.902
 1777SSM    C1B21636  25.677  22.099   7.127
 1777SSM    C2B21637  25.669  22.008   6.627
 1777SSM    C3B21638  25.819  22.022   6.155
 1777SSM    C4B21639  25.906  22.007   5.694
 1778SSM    NC321640  21.222   1.434   8.116
 1778SSM    PO421641  21.357   1.585   7.792
 1778SSM    OH121642  21.466   1.431   7.468
 1778SSM    AM221643  21.226   1.507   7.288
 1778SSM    T1A21644  21.534   1.212   7.219
 1778SSM    C2A21645  21.570   1.030   6.866
 1778SSM    C3A21646  21.541   0.994   6.420
 1778SSM    C4A21647  21.429   0.930   5.885
 1778SSM    C1B21648  20.942   1.532   6.940
 1778SSM    C2B21649  21.036   1.674   6.490
 1778SSM    C3B21650  21.048   1.678   6.004
 1778SSM    C4B21651  21.202   1.770   5.517
 1779SSM    NC321652   4.977  27.826   8.032
 1779SSM    PO421653   4.796  28.168   7.897
 1779SSM    OH121654   4.583  28.262   7.585
 1779SSM    AM221655   4.823  28.340   7.410
 1779SSM    T1A21656   4.453  28.209   7.278
 1779SSM    C2A21657   4.373  28.315   6.876
 1779SSM    C3A21658   4.130  28.250   6.526
 1779SSM    C4A21659   3.977  28.275   6.073
 1779SSM    C1B21660   5.063  28.358   7.101
 1779SSM    C2B21661   5.394  28.303   6.700
 1779SSM    C3B21662   5.470  28.371   6.231
 1779SSM    C4B21663   5.415  28.598   5.763
 1780SSM    NC321664  22.132   2.679   7.706
 1780SSM    PO421665  22.039   2.922   7.434
 1780SSM    OH121666  21.984   2.925   7.082
 1780SSM    AM221667  22.241   3.044   7.031
 1780SSM    T1A21668  21.977   2.768   6.804
 1780SSM    C2A21669  22.121   2.756   6.456
 1780SSM    C3A21670  22.194   2.694   5.969
 1780SSM    C4A21671  22.300   2.521   5.558
 1780SSM    C1B21672  22.460   3.107   6.720
 1780SSM    C2B21673  22.526   3.067   6.171
 1780SSM    C3B21674  22.803   3.024   5.750
 1780SSM    C4B21675  23.042   3.298   5.407
 1781SSM    NC321676   6.431   9.518   7.150
 1781SSM    PO421677   6.086   9.337   7.268
 1781SSM    OH121678   6.152   9.131   6.969
 1781SSM    AM221679   6.153   9.379   6.794
 1781SSM    T1A21680   6.375   9.034   6.730
 1781SSM    C2A21681   6.501   8.828   6.439
 1781SSM    C3A21682   6.335   8.714   6.020
 1781SSM    C4A21683   6.036   8.618   5.628
 1781SSM    C1B21684   6.427   9.598   6.632
 1781SSM    C2B21685   6.680   9.724   6.273
 1781SSM    C3B21686   6.832  10.011   5.890
 1781SSM    C4B21687   7.006  10.041   5.430
 1782SSM    NC321688  24.752  28.770   7.678
 1782SSM    PO421689  24.428  28.781   7.487
 1782SSM    OH121690  24.177  28.640   7.198
 1782SSM    AM221691  24.418  28.510   7.039
 1782SSM    T1A21692  24.082  28.679   6.868
 1782SSM    C2A21693  23.918  28.596   6.539
 1782SSM    C3A21694  23.725  28.488   6.131
 1782SSM    C4A21695  23.414  28.502   5.777
 1782SSM    C1B21696  24.582  28.531   6.696
 1782SSM    C2B21697  24.618  28.535   6.167
 1782SSM    C3B21698  24.560  28.623   5.731
 1782SSM    C4B21699  24.359  28.738   5.248
 1783SSM    NC321700  32.807  11.383   7.362
 1783SSM    PO421701  32.839  11.726   7.178
 1783SSM    OH121702  33.035  11.711   6.874
 1783SSM    AM221703  32.746  11.635   6.746
 1783SSM    T1A21704  33.157  11.598   6.583
 1783SSM    C2A21705  33.120  11.659   6.176
 1783SSM    C3A21706  33.005  11.724   5.729
 1783SSM    C4A21707  32.679  11.883   5.390
 1783SSM    C1B21708  32.595  11.526   6.444
 1783SSM    C2B21709  32.520  11.415   5.998
 1783SSM    C3B21710  32.535  11.387   5.526
 1783SSM    C4B21711  32.616  11.402   5.060
 1784SSM    NC321712  32.261   5.211   7.803
 1784SSM    PO421713  32.174   4.980   7.524
 1784SSM    OH121714  31.957   4.918   7.244
 1784SSM    AM221715  32.026   5.160   7.075
 1784SSM    T1A21716  31.908   4.667   7.002
 1784SSM    C2A21717  31.931   4.674   6.582
 1784SSM    C3A21718  31.852   4.618   6.052
 1784SSM    C4A21719  31.859   4.708   5.554
 1784SSM    C1B21720  32.081   5.301   6.691
 1784SSM    C2B21721  32.102   5.490   6.243
 1784SSM    C3B21722  32.208   5.558   5.814
 1784SSM    C4B21723  32.166   5.652   5.375
 1785SSM    NC321724  32.865  30.168   7.739
 1785SSM    PO421725  32.818  30.556   7.666
 1785SSM    OH121726  32.730  30.658   7.314
 1785SSM    AM221727  32.766  30.934   7.332
 1785SSM    T1A21728  32.790  30.602   6.968
 1785SSM    C2A21729  32.982  30.628   6.599
 1785SSM    C3A21730  33.146  30.555   6.190
 1785SSM    C4A21731  33.486  30.595   5.779
 1785SSM    C1B21732  32.743  31.274   7.179
 1785SSM    C2B21733  32.665  31.404   6.688
 1785SSM    C3B21734  32.407  31.617   6.307
 1785SSM    C4B21735  32.670  31.805   5.880
 1786SSM    NC321736  30.731  24.888   7.388
 1786SSM    PO421737  31.093  24.770   7.436
 1786SSM    OH121738  31.182  24.997   7.154
 1786SSM    AM221739  30.967  24.889   6.972
 1786SSM    T1A21740  31.341  24.993   6.849
 1786SSM    C2A21741  31.375  24.926   6.476
 1786SSM    C3A21742  31.417  24.967   6.013
 1786SSM    C4A21743  31.737  24.986   5.619
 1786SSM    C1B21744  30.868  24.857   6.530
 1786SSM    C2B21745  30.890  24.904   6.016
 1786SSM    C3B21746  30.688  25.180   5.641
 1786SSM    C4B21747  30.768  25.415   5.186
 1787SSM    NC321748   2.789  33.346   7.991
 1787SSM    PO421749   2.669  33.028   7.791
 1787SSM    OH121750   2.832  32.941   7.459
 1787SSM    AM221751   2.569  32.907   7.314
 1787SSM    T1A21752   3.009  33.061   7.185
 1787SSM    C2A21753   3.050  33.347   6.960
 1787SSM    C3A21754   3.160  33.882   6.828
 1787SSM    C4A21755   3.405  33.908   6.401
 1787SSM    C1B21756   2.506  32.930   7.004
 1787SSM    C2B21757   2.501  32.912   6.506
 1787SSM    C3B21758   2.569  32.876   6.072
 1787SSM    C4B21759   2.854  32.677   5.744
 1788SSM    NC321760  21.775   6.513   7.512
 1788SSM    PO421761  21.431   6.265   7.451
 1788SSM    OH121762  21.471   6.136   7.108
 1788SSM    AM221763  21.550   6.427   6.998
 1788SSM    T1A21764  21.463   5.940   6.827
 1788SSM    C2A21765  21.486   5.957   6.415
 1788SSM    C3A21766  21.615   5.981   6.002
 1788SSM    C4A21767  21.707   6.132   5.552
 1788SSM    C1B21768  21.834   6.689   6.905
 1788SSM    C2B21769  22.144   7.072   6.762
 1788SSM    C3B21770  22.596   7.092   6.499
 1788SSM    C4B21771  22.904   6.982   6.089
 1789SSM    NC321772  28.034  32.411   6.979
 1789SSM    PO421773  28.184  32.791   6.838
 1789SSM    OH121774  28.336  32.777   6.523
 1789SSM    AM221775  28.204  33.040   6.422
 1789SSM    T1A21776  28.256  32.631   6.220
 1789SSM    C2A21777  28.094  32.813   5.926
 1789SSM    C3A21778  27.903  32.873   5.476
 1789SSM    C4A21779  27.748  32.981   5.053
 1789SSM    C1B21780  28.114  33.346   6.130
 1789SSM    C2B21781  28.179  33.647   5.753
 1789SSM    C3B21782  28.168  33.998   5.419
 1789SSM    C4B21783  28.358  34.471   5.528
 1790SSM    NC321784   2.898  35.250   7.785
 1790SSM    PO421785   3.245  35.375   7.616
 1790SSM    OH121786   3.432  35.299   7.339
 1790SSM    AM221787   3.543  35.006   7.375
 1790SSM    T1A21788   3.457  35.280   7.015
 1790SSM    C2A21789   3.484  35.359   6.625
 1790SSM    C3A21790   3.649  35.296   6.209
 1790SSM    C4A21791   3.984  35.325   5.835
 1790SSM    C1B21792   3.763  34.721   7.162
 1790SSM    C2B21793   4.019  34.439   6.786
 1790SSM    C3B21794   4.276  34.175   6.463
 1790SSM    C4B21795   4.360  33.998   5.969
 1791CHOL   ROH21796  32.707   9.927   6.443
 1791CHOL    R121797  32.394   9.830   6.162
 1791CHOL    R221798  32.734   9.870   6.100
 1791CHOL    R321799  32.340   9.687   5.763
 1791CHOL    R421800  32.700   9.716   5.833
 1791CHOL    R521801  32.699   9.639   6.195
 1791CHOL    R621802  32.543   9.500   5.777
 1791CHOL    C121803  32.546   9.588   5.431
 1791CHOL    C221804  32.539   9.569   4.994
 1792CHOL   ROH21805   5.620  17.151   3.723
 1792CHOL    R121806   5.576  17.327   4.115
 1792CHOL    R221807   5.835  17.126   3.997
 1792CHOL    R321808   5.800  17.402   4.472
 1792CHOL    R421809   6.014  17.226   4.229
 1792CHOL    R521810   5.874  17.360   3.913
 1792CHOL    R621811   6.032  17.476   4.338
 1792CHOL    C121812   6.160  17.334   4.640
 1792CHOL    C221813   6.256  17.449   5.038
 1793CHOL   ROH21814  18.461  18.817   7.788
 1793CHOL    R121815  18.618  18.605   7.446
 1793CHOL    R221816  18.360  18.839   7.455
 1793CHOL    R321817  18.606  18.611   7.019
 1793CHOL    R421818  18.392  18.881   7.150
 1793CHOL    R521819  18.579  18.964   7.459
 1793CHOL    R621820  18.620  18.887   6.999
 1793CHOL    C121821  18.429  18.800   6.709
 1793CHOL    C221822  18.424  18.733   6.298
 1794CHOL   ROH21823  24.105  18.459   4.012
 1794CHOL    R121824  24.313  18.519   4.385
 1794CHOL    R221825  23.991  18.621   4.299
 1794CHOL    R321826  24.241  18.638   4.790
 1794CHOL    R421827  23.926  18.655   4.601
 1794CHOL    R521828  23.981  18.377   4.362
 1794CHOL    R621829  24.002  18.500   4.812
 1794CHOL    C121830  23.950  18.778   5.032
 1794CHOL    C221831  23.972  18.840   5.463
 1795CHOL   ROH21832  18.958  35.467   7.269
 1795CHOL    R121833  19.088  35.315   6.886
 1795CHOL    R221834  18.804  35.503   6.958
 1795CHOL    R321835  19.008  35.358   6.468
 1795CHOL    R421836  18.781  35.576   6.658
 1795CHOL    R521837  19.000  35.661   6.945
 1795CHOL    R621838  18.979  35.633   6.478
 1795CHOL    C121839  18.760  35.543   6.210
 1795CHOL    C221840  18.886  35.656   5.824
 1796CHOL   ROH21841   6.413  13.995   7.134
 1796CHOL    R121842   6.467  13.963   6.707
 1796CHOL    R221843   6.709  14.012   6.952
 1796CHOL    R321844   6.774  13.909   6.415
 1796CHOL    R421845   6.925  13.918   6.750
 1796CHOL    R521846   6.651  13.766   6.947
 1796CHOL    R621847   6.913  13.720   6.562
 1796CHOL    C121848   7.174  13.880   6.378
 1796CHOL    C221849   7.370  13.913   6.008
 1797CHOL   ROH21850   9.095  26.024   6.250
 1797CHOL    R121851   8.755  25.997   5.986
 1797CHOL    R221852   9.012  26.231   5.981
 1797CHOL    R321853   8.610  26.151   5.614
 1797CHOL    R421854   8.938  26.302   5.689
 1797CHOL    R521855   9.096  26.020   5.870
 1797CHOL    R621856   8.856  26.138   5.487
 1797CHOL    C121857   8.701  26.416   5.324
 1797CHOL    C221858   8.391  26.575   5.093
 1798CHOL   ROH21859  31.929  35.442   3.498
 1798CHOL    R121860  31.921  35.258   3.888
 1798CHOL    R221861  31.937  35.597   3.810
 1798CHOL    R321862  31.865  35.357   4.301
 1798CHOL    R421863  31.843  35.663   4.098
 1798CHOL    R521864  31.697  35.523   3.788
 1798CHOL    R621865  31.659  35.535   4.254
 1798CHOL    C121866  31.812  35.672   4.546
 1798CHOL    C221867  31.893  35.613   4.992
 1799CHOL   ROH21868  18.216  10.475   4.601
 1799CHOL    R121869  18.008  10.200   4.860
 1799CHOL    R221870  18.348  10.212   4.788
 1799CHOL    R321871  18.084   9.905   5.161
 1799CHOL    R421872  18.404  10.042   5.041
 1799CHOL    R521873  18.299  10.388   4.962
 1799CHOL    R621874  18.283  10.051   5.286
 1799CHOL    C121875  18.386   9.714   5.348
 1799CHOL    C221876  18.443   9.377   5.646
 1800CHOL   ROH21877  11.112   4.345   6.800
 1800CHOL    R121878  11.048   3.951   6.637
 1800CHOL    R221879  10.972   4.259   6.493
 1800CHOL    R321880  10.951   3.756   6.269
 1800CHOL    R421881  10.955   4.120   6.216
 1800CHOL    R521882  11.218   4.216   6.459
 1800CHOL    R621883  11.110   3.920   6.113
 1800CHOL    C121884  10.846   3.834   5.888
 1800CHOL    C221885  10.918   3.661   5.501
 1801CHOL   ROH21886  21.324  34.884   7.162
 1801CHOL    R121887  21.413  34.632   6.823
 1801CHOL    R221888  21.188  34.897   6.841
 1801CHOL    R321889  21.351  34.611   6.400
 1801CHOL    R421890  21.188  34.914   6.532
 1801CHOL    R521891  21.419  34.993   6.810
 1801CHOL    R621892  21.396  34.881   6.357
 1801CHOL    C121893  21.163  34.800   6.098
 1801CHOL    C221894  21.434  34.866   5.738
 1802CHOL   ROH21895  22.874   9.009   3.904
 1802CHOL    R121896  23.147   8.862   4.204
 1802CHOL    R221897  22.853   9.041   4.251
 1802CHOL    R321898  23.174   8.798   4.627
 1802CHOL    R421899  22.847   8.947   4.546
 1802CHOL    R521900  22.792   8.800   4.211
 1802CHOL    R621901  22.915   8.704   4.652
 1802CHOL    C121902  22.970   8.859   4.969
 1802CHOL    C221903  23.115   8.998   5.390
 1803CHOL   ROH21904  13.283  20.060   4.057
 1803CHOL    R121905  13.065  20.292   4.348
 1803CHOL    R221906  13.371  20.130   4.387
 1803CHOL    R321907  13.115  20.476   4.731
 1803CHOL    R421908  13.428  20.306   4.636
 1803CHOL    R521909  13.413  20.348   4.268
 1803CHOL    R621910  13.370  20.570   4.678
 1803CHOL    C121911  13.382  20.515   5.031
 1803CHOL    C221912  13.271  20.876   5.266
 1804CHOL   ROH21913  10.078  19.027   6.737
 1804CHOL    R121914  10.227  19.237   6.391
 1804CHOL    R221915   9.988  18.984   6.403
 1804CHOL    R321916  10.138  19.298   5.977
 1804CHOL    R421917   9.890  19.069   6.122
 1804CHOL    R521918   9.876  19.201   6.467
 1804CHOL    R621919   9.865  19.319   6.015
 1804CHOL    C121920   9.886  19.179   5.686
 1804CHOL    C221921  10.112  19.149   5.316
 1805CHOL   ROH21922  33.766  28.215   3.945
 1805CHOL    R121923  33.960  27.874   4.125
 1805CHOL    R221924  33.926  28.195   4.255
 1805CHOL    R321925  34.116  27.740   4.500
 1805CHOL    R421926  33.987  28.083   4.537
 1805CHOL    R521927  33.709  28.072   4.293
 1805CHOL    R621928  33.910  27.847   4.650
 1805CHOL    C121929  34.186  27.866   4.877
 1805CHOL    C221930  34.311  27.756   5.281
 1806CHOL   ROH21931  19.083  13.392   6.976
 1806CHOL    R121932  19.021  13.641   6.629
 1806CHOL    R221933  19.169  13.326   6.644
 1806CHOL    R321934  19.031  13.623   6.201
 1806CHOL    R421935  19.125  13.295   6.339
 1806CHOL    R521936  18.919  13.295   6.647
 1806CHOL    R621937  18.913  13.374   6.186
 1806CHOL    C121938  19.123  13.375   5.897
 1806CHOL    C221939  19.151  13.502   5.483
 1807CHOL   ROH21940  14.852  17.577   4.047
 1807CHOL    R121941  14.956  17.681   4.453
 1807CHOL    R221942  14.657  17.546   4.335
 1807CHOL    R321943  14.821  17.624   4.855
 1807CHOL    R421944  14.589  17.457   4.624
 1807CHOL    R521945  14.825  17.358   4.357
 1807CHOL    R621946  14.753  17.358   4.819
 1807CHOL    C121947  14.519  17.464   5.068
 1807CHOL    C221948  14.405  17.654   5.454
 1808CHOL   ROH21949   5.482   4.267   6.528
 1808CHOL    R121950   5.571   4.439   6.142
 1808CHOL    R221951   5.483   4.111   6.216
 1808CHOL    R321952   5.538   4.352   5.725
 1808CHOL    R421953   5.407   4.068   5.919
 1808CHOL    R521954   5.272   4.249   6.212
 1808CHOL    R621955   5.286   4.240   5.745
 1808CHOL    C121956   5.428   4.060   5.470
 1808CHOL    C221957   5.519   4.117   5.056
 1809CHOL   ROH21958   9.337   0.499   6.617
 1809CHOL    R121959   9.144   0.341   6.265
 1809CHOL    R221960   9.333   0.631   6.295
 1809CHOL    R321961   9.136   0.391   5.841
 1809CHOL    R421962   9.371   0.634   5.987
 1809CHOL    R521963   9.492   0.437   6.276
 1809CHOL    R621964   9.410   0.425   5.816
 1809CHOL    C121965   9.285   0.623   5.546
 1809CHOL    C221966   9.178   0.567   5.120
 1810CHOL   ROH21967  29.162  26.326   3.550
 1810CHOL    R121968  28.923  26.342   3.909
 1810CHOL    R221969  29.263  26.409   3.873
 1810CHOL    R321970  28.939  26.485   4.311
 1810CHOL    R421971  29.257  26.561   4.143
 1810CHOL    R521972  29.135  26.613   3.797
 1810CHOL    R621973  29.063  26.724   4.246
 1810CHOL    C121974  29.187  26.661   4.575
 1810CHOL    C221975  29.160  26.724   5.014
 1811CHOL   ROH21976   9.855  27.220   6.453
 1811CHOL    R121977   9.514  27.094   6.221
 1811CHOL    R221978   9.774  27.304   6.124
 1811CHOL    R321979   9.370  27.089   5.818
 1811CHOL    R421980   9.698  27.254   5.828
 1811CHOL    R521981   9.855  27.066   6.105
 1811CHOL    R621982   9.614  27.025   5.707
 1811CHOL    C121983   9.462  27.218   5.447
 1811CHOL    C221984   9.121  27.159   5.190
 1812CHOL   ROH21985  34.609  33.385   4.139
 1812CHOL    R121986  34.253  33.240   4.335
 1812CHOL    R221987  34.539  33.374   4.480
 1812CHOL    R321988  34.059  33.243   4.716
 1812CHOL    R421989  34.379  33.425   4.740
 1812CHOL    R521990  34.397  33.565   4.398
 1812CHOL    R621991  34.120  33.508   4.770
 1812CHOL    C121992  34.113  33.364   5.097
 1812CHOL    C221993  33.773  33.560   5.244
 1813CHOL   ROH21994  29.873  20.946   6.803
 1813CHOL    R121995  29.771  20.897   6.386
 1813CHOL    R221996  30.012  20.726   6.570
 1813CHOL    R321997  29.833  20.630   6.058
 1813CHOL    R421998  30.014  20.505   6.353
 1813CHOL    R521999  29.787  20.623   6.620
 1813CHOL    R622000  29.806  20.401   6.210
 1813CHOL    C122001  30.034  20.296   5.955
 1813CHOL    C222002  29.972  20.093   5.590
 1814CHOL   ROH22003  34.685  27.475   6.800
 1814CHOL    R122004  34.502  27.392   6.418
 1814CHOL    R222005  34.560  27.702   6.566
 1814CHOL    R322006  34.385  27.589   6.057
 1814CHOL    R422007  34.528  27.836   6.289
 1814CHOL    R522008  34.776  27.623   6.462
 1814CHOL    R622009  34.610  27.749   6.044
 1814CHOL    C122010  34.363  27.955   5.888
 1814CHOL    C222011  34.291  28.229   5.528
 1815CHOL   ROH22012  25.467   9.526   6.994
 1815CHOL    R122013  25.411   9.601   6.573
 1815CHOL    R222014  25.707   9.533   6.741
 1815CHOL    R322015  25.617   9.570   6.200
 1815CHOL    R422016  25.839   9.459   6.471
 1815CHOL    R522017  25.588   9.315   6.702
 1815CHOL    R622018  25.733   9.326   6.258
 1815CHOL    C122019  25.977   9.476   6.044
 1815CHOL    C222020  26.065   9.429   5.598
 1816CHOL   ROH22021  33.975  22.131   5.275
 1816CHOL    R122022  34.293  22.351   5.467
 1816CHOL    R222023  34.311  22.148   5.185
 1816CHOL    R322024  34.695  22.479   5.400
 1816CHOL    R422025  34.579  22.284   5.110
 1816CHOL    R522026  34.220  22.372   5.114
 1816CHOL    R622027  34.654  22.546   5.134
 1816CHOL    C122028  34.997  22.447   5.135
 1816CHOL    C222029  35.442  22.437   5.152
 1817CHOL   ROH22030  17.178  21.734   4.022
 1817CHOL    R122031  16.957  21.733   4.392
 1817CHOL    R222032  17.300  21.772   4.347
 1817CHOL    R322033  17.003  21.830   4.807
 1817CHOL    R422034  17.320  21.894   4.631
 1817CHOL    R522035  17.189  21.994   4.299
 1817CHOL    R622036  17.147  22.061   4.760
 1817CHOL    C122037  17.278  21.953   5.074
 1817CHOL    C222038  17.273  22.118   5.470
 1818CHOL   ROH22039  27.484  25.295   6.635
 1818CHOL    R122040  27.551  25.489   6.256
 1818CHOL    R222041  27.512  25.149   6.320
 1818CHOL    R322042  27.536  25.411   5.836
 1818CHOL    R422043  27.447  25.105   6.020
 1818CHOL    R522044  27.283  25.255   6.316
 1818CHOL    R622045  27.303  25.262   5.849
 1818CHOL    C122046  27.473  25.113   5.571
 1818CHOL    C222047  27.795  25.203   5.268
 1819CHOL   ROH22048  15.280   8.458   7.658
 1819CHOL    R122049  15.411   8.302   7.278
 1819CHOL    R222050  15.154   8.528   7.341
 1819CHOL    R322051  15.367   8.371   6.858
 1819CHOL    R422052  15.163   8.615   7.044
 1819CHOL    R522053  15.372   8.654   7.347
 1819CHOL    R622054  15.378   8.647   6.879
 1819CHOL    C122055  15.167   8.601   6.595
 1819CHOL    C222056  15.327   8.703   6.201
 1820CHOL   ROH22057  25.550  11.181   3.925
 1820CHOL    R122058  25.666  11.049   4.320
 1820CHOL    R222059  25.404  10.933   4.122
 1820CHOL    R322060  25.595  10.731   4.597
 1820CHOL    R422061  25.393  10.676   4.295
 1820CHOL    R522062  25.617  10.825   4.041
 1820CHOL    R622063  25.597  10.532   4.405
 1820CHOL    C122064  25.372  10.399   4.648
 1820CHOL    C222065  25.519  10.097   4.936
 1821CHOL   ROH22066  28.204  31.526   6.394
 1821CHOL    R122067  27.879  31.604   6.121
 1821CHOL    R222068  28.193  31.471   6.050
 1821CHOL    R322069  27.753  31.517   5.721
 1821CHOL    R422070  28.081  31.361   5.782
 1821CHOL    R522071  28.049  31.286   6.143
 1821CHOL    R622072  27.836  31.253   5.728
 1821CHOL    C122073  27.877  31.337   5.383
 1821CHOL    C222074  27.657  31.330   4.983
 1822CHOL   ROH22075  12.866   2.944   6.755
 1822CHOL    R122076  12.814   3.020   6.334
 1822CHOL    R222077  12.866   2.715   6.492
 1822CHOL    R322078  12.739   2.815   5.966
 1822CHOL    R422079  12.759   2.570   6.241
 1822CHOL    R522080  12.623   2.775   6.517
 1822CHOL    R622081  12.553   2.641   6.075
 1822CHOL    C122082  12.698   2.444   5.814
 1822CHOL    C222083  12.543   2.202   5.472
 1823CHOL   ROH22084  24.958  21.542   3.715
 1823CHOL    R122085  25.043  21.311   4.069
 1823CHOL    R222086  25.179  21.617   3.974
 1823CHOL    R322087  25.235  21.346   4.450
 1823CHOL    R422088  25.269  21.663   4.267
 1823CHOL    R522089  24.952  21.660   4.076
 1823CHOL    R622090  25.140  21.601   4.500
 1823CHOL    C122091  25.454  21.601   4.672
 1823CHOL    C222092  25.754  21.477   4.956
 1824CHOL   ROH22093  24.813   3.200   7.112
 1824CHOL    R122094  24.680   3.514   6.848
 1824CHOL    R222095  24.939   3.286   6.799
 1824CHOL    R322096  24.724   3.649   6.445
 1824CHOL    R422097  24.930   3.348   6.495
 1824CHOL    R522098  24.722   3.170   6.745
 1824CHOL    R622099  24.715   3.395   6.335
 1824CHOL    C122100  24.925   3.569   6.104
 1824CHOL    C222101  25.079   3.810   5.774
 1825CHOL   ROH22102   5.979  17.737   3.691
 1825CHOL    R122103   5.795  17.732   4.081
 1825CHOL    R222104   6.130  17.780   4.003
 1825CHOL    R322105   5.878  17.831   4.489
 1825CHOL    R422106   6.175  17.903   4.284
 1825CHOL    R522107   6.010  17.998   3.966
 1825CHOL    R622108   6.011  18.066   4.429
 1825CHOL    C122109   6.174  17.962   4.729
 1825CHOL    C222110   6.122  18.262   5.031
 1826CHOL   ROH22111  32.030   2.415   3.857
 1826CHOL    R122112  32.215   2.795   3.944
 1826CHOL    R222113  32.093   2.559   4.169
 1826CHOL    R322114  32.385   3.015   4.270
 1826CHOL    R422115  32.262   2.690   4.393
 1826CHOL    R522116  32.321   2.483   4.092
 1826CHOL    R622117  32.514   2.796   4.380
 1826CHOL    C122118  32.443   2.996   4.668
 1826CHOL    C222119  32.362   3.332   4.947
 1827CHOL   ROH22120  29.122   1.224   3.893
 1827CHOL    R122121  28.941   1.361   4.260
 1827CHOL    R222122  29.041   1.038   4.176
 1827CHOL    R322123  28.868   1.232   4.662
 1827CHOL    R422124  29.039   0.963   4.477
 1827CHOL    R522125  29.246   1.167   4.247
 1827CHOL    R622126  29.115   1.112   4.693
 1827CHOL    C122127  28.907   0.912   4.904
 1827CHOL    C222128  28.712   0.870   5.289
 1828CHOL   ROH22129  33.657  11.449   6.705
 1828CHOL    R122130  33.655  11.592   6.298
 1828CHOL    R222131  33.637  11.263   6.411
 1828CHOL    R322132  33.574  11.459   5.900
 1828CHOL    R422133  33.525  11.179   6.134
 1828CHOL    R522134  33.407  11.366   6.432
 1828CHOL    R622135  33.351  11.311   5.971
 1828CHOL    C122136  33.478  11.128   5.690
 1828CHOL    C222137  33.515  11.237   5.286
 1829CHOL   ROH22138   3.882   1.736   4.861
 1829CHOL    R122139   4.115   1.422   5.043
 1829CHOL    R222140   4.228   1.691   4.853
 1829CHOL    R322141   4.520   1.323   5.139
 1829CHOL    R422142   4.512   1.649   4.969
 1829CHOL    R522143   4.184   1.774   5.088
 1829CHOL    R622144   4.587   1.579   5.222
 1829CHOL    C122145   4.898   1.456   5.094
 1829CHOL    C222146   5.211   1.178   4.982
 1830CHOL   ROH22147  14.807  19.612   7.026
 1830CHOL    R122148  14.535  19.401   6.767
 1830CHOL    R222149  14.696  19.704   6.709
 1830CHOL    R322150  14.397  19.397   6.362
 1830CHOL    R422151  14.641  19.670   6.406
 1830CHOL    R522152  14.860  19.518   6.662
 1830CHOL    R622153  14.647  19.444   6.253
 1830CHOL    C122154  14.430  19.600   6.015
 1830CHOL    C222155  14.148  19.482   5.710
 1831CHOL   ROH22156   6.781  17.138   3.590
 1831CHOL    R122157   7.035  17.025   3.920
 1831CHOL    R222158   6.862  17.323   3.875
 1831CHOL    R322159   7.138  17.146   4.317
 1831CHOL    R422160   6.892  17.381   4.178
 1831CHOL    R522161   6.699  17.150   3.962
 1831CHOL    R622162   6.879  17.209   4.389
 1831CHOL    C122163   7.071  17.438   4.586
 1831CHOL    C222164   7.406  17.511   4.846
 1832CHOL   ROH22165   1.520   3.426   7.101
 1832CHOL    R122166   1.395   3.723   6.814
 1832CHOL    R222167   1.566   3.425   6.755
 1832CHOL    R322168   1.350   3.778   6.392
 1832CHOL    R422169   1.484   3.442   6.457
 1832CHOL    R522170   1.321   3.370   6.781
 1832CHOL    R622171   1.249   3.525   6.346
 1832CHOL    C122172   1.419   3.595   6.039
 1832CHOL    C222173   1.425   3.817   5.655
 1833CHOL   ROH22174  35.145  23.513   4.528
 1833CHOL    R122175  35.056  23.384   4.930
 1833CHOL    R222176  35.368  23.437   4.785
 1833CHOL    R322177  35.243  23.332   5.311
 1833CHOL    R422178  35.492  23.453   5.069
 1833CHOL    R522179  35.274  23.661   4.853
 1833CHOL    R622180  35.390  23.566   5.296
 1833CHOL    C122181  35.601  23.355   5.494
 1833CHOL    C222182  35.703  23.020   5.790
 1834CHOL   ROH22183  23.163  35.752   6.679
 1834CHOL    R122184  23.503  35.827   6.424
 1834CHOL    R222185  23.166  35.838   6.341
 1834CHOL    R322186  23.602  35.991   6.041
 1834CHOL    R422187  23.237  36.006   6.090
 1834CHOL    R522188  23.225  36.054   6.457
 1834CHOL    R622189  23.424  36.202   6.061
 1834CHOL    C122190  23.432  36.142   5.709
 1834CHOL    C222191  23.652  36.001   5.357
 1835CHOL   ROH22192  13.423  11.344   7.197
 1835CHOL    R122193  13.391  11.212   6.788
 1835CHOL    R222194  13.669  11.201   6.996
 1835CHOL    R322195  13.601  10.980   6.496
 1835CHOL    R422196  13.796  10.989   6.808
 1835CHOL    R522197  13.520  11.006   7.054
 1835CHOL    R622198  13.677  10.783   6.674
 1835CHOL    C122199  13.947  10.781   6.439
 1835CHOL    C222200  14.186  10.638   6.102
 1836CHOL   ROH22201  16.183  34.503   6.690
 1836CHOL    R122202  15.945  34.280   6.408
 1836CHOL    R222203  16.172  34.535   6.343
 1836CHOL    R322204  15.910  34.205   5.988
 1836CHOL    R422205  16.186  34.442   6.047
 1836CHOL    R522206  16.302  34.321   6.378
 1836CHOL    R622207  16.183  34.189   5.946
 1836CHOL    C122208  16.065  34.317   5.633
 1836CHOL    C222209  15.835  34.360   5.260
 1837CHOL   ROH22210   1.387   5.078   6.984
 1837CHOL    R122211   1.134   5.289   6.705
 1837CHOL    R222212   1.443   5.140   6.645
 1837CHOL    R322213   1.087   5.358   6.285
 1837CHOL    R422214   1.380   5.142   6.342
 1837CHOL    R522215   1.267   4.959   6.643
 1837CHOL    R622216   1.143   5.096   6.214
 1837CHOL    C122217   1.262   5.280   5.931
 1837CHOL    C222218   1.139   5.460   5.562
 1838CHOL   ROH22219   6.007  15.544   7.292
 1838CHOL    R122220   5.709  15.277   7.129
 1838CHOL    R222221   5.834  15.571   6.991
 1838CHOL    R322222   5.502  15.195   6.764
 1838CHOL    R422223   5.728  15.481   6.714
 1838CHOL    R522224   6.001  15.387   6.946
 1838CHOL    R622225   5.724  15.232   6.603
 1838CHOL    C122226   5.457  15.333   6.388
 1838CHOL    C222227   5.113  15.386   6.130
 1839CHOL   ROH22228  23.632   6.381   6.731
 1839CHOL    R122229  23.851   6.112   6.475
 1839CHOL    R222230  23.672   6.396   6.385
 1839CHOL    R322231  24.003   6.082   6.077
 1839CHOL    R422232  23.826   6.402   6.116
 1839CHOL    R522233  23.896   6.470   6.473
 1839CHOL    R622234  24.088   6.345   6.065
 1839CHOL    C122235  24.006   6.277   5.724
 1839CHOL    C222236  23.947   6.005   5.403
 1840CHOL   ROH22237   9.767  33.577   3.707
 1840CHOL    R122238   9.989  33.686   4.061
 1840CHOL    R222239   9.657  33.756   3.985
 1840CHOL    R322240   9.930  33.837   4.457
 1840CHOL    R422241   9.604  33.813   4.285
 1840CHOL    R522242   9.669  33.519   4.070
 1840CHOL    R622243   9.704  33.685   4.505
 1840CHOL    C122244   9.642  33.977   4.702
 1840CHOL    C222245   9.650  34.121   5.127
 1841CHOL   ROH22246  21.265  17.957   3.956
 1841CHOL    R122247  21.244  17.753   4.336
 1841CHOL    R222248  21.324  18.087   4.274
 1841CHOL    R322249  21.235  17.835   4.756
 1841CHOL    R422250  21.262  18.152   4.571
 1841CHOL    R522251  21.073  18.063   4.265
 1841CHOL    R622252  21.066  18.053   4.733
 1841CHOL    C122253  21.262  18.138   5.020
 1841CHOL    C222254  21.271  18.022   5.449
 1842CHOL   ROH22255  12.687  30.812   4.274
 1842CHOL    R122256  12.288  30.661   4.340
 1842CHOL    R222257  12.545  30.697   4.571
 1842CHOL    R322258  12.018  30.564   4.656
 1842CHOL    R422259  12.336  30.680   4.800
 1842CHOL    R522260  12.437  30.923   4.538
 1842CHOL    R622261  12.083  30.784   4.811
 1842CHOL    C122262  11.996  30.541   5.058
 1842CHOL    C222263  11.628  30.417   5.273
 1843CHOL   ROH22264   7.988  27.982   6.820
 1843CHOL    R122265   7.688  27.867   6.532
 1843CHOL    R222266   8.017  27.964   6.473
 1843CHOL    R322267   7.647  27.758   6.121
 1843CHOL    R422268   8.000  27.834   6.192
 1843CHOL    R522269   8.018  27.722   6.544
 1843CHOL    R622270   7.876  27.603   6.115
 1843CHOL    C122271   7.859  27.725   5.780
 1843CHOL    C222272   7.825  27.782   5.360
 1844CHOL   ROH22273   3.310  19.630   5.445
 1844CHOL    R122274   3.516  19.272   5.322
 1844CHOL    R222275   3.653  19.573   5.430
 1844CHOL    R322276   3.904  19.093   5.330
 1844CHOL    R422277   3.920  19.425   5.487
 1844CHOL    R522278   3.581  19.442   5.633
 1844CHOL    R622279   3.962  19.175   5.588
 1844CHOL    C122280   4.286  19.169   5.436
 1844CHOL    C222281   4.570  18.918   5.174
 1845CHOL   ROH22282  32.189  25.320   7.430
 1845CHOL    R122283  32.140  25.369   7.004
 1845CHOL    R222284  32.412  25.235   7.175
 1845CHOL    R322285  32.315  25.245   6.633
 1845CHOL    R422286  32.507  25.100   6.912
 1845CHOL    R522287  32.234  25.057   7.160
 1845CHOL    R622288  32.358  24.984   6.715
 1845CHOL    C122289  32.627  25.037   6.484
 1845CHOL    C222290  32.785  25.086   6.086
 1846CHOL   ROH22291  13.115  26.194   3.622
 1846CHOL    R122292  13.321  26.346   3.970
 1846CHOL    R222293  12.983  26.267   3.937
 1846CHOL    R322294  13.266  26.401   4.390
 1846CHOL    R422295  12.960  26.255   4.246
 1846CHOL    R522296  13.110  26.052   3.974
 1846CHOL    R622297  13.139  26.159   4.429
 1846CHOL    C122298  12.989  26.363   4.681
 1846CHOL    C222299  13.082  26.525   5.063
 1847CHOL   ROH22300  19.945  31.855   4.324
 1847CHOL    R122301  19.962  32.198   4.585
 1847CHOL    R222302  19.771  31.909   4.621
 1847CHOL    R322303  19.845  32.322   4.978
 1847CHOL    R422304  19.734  31.975   4.922
 1847CHOL    R522305  20.006  31.858   4.699
 1847CHOL    R622306  19.913  32.082   5.099
 1847CHOL    C122307  19.642  32.195   5.302
 1847CHOL    C222308  19.524  32.481   5.580
 1848CHOL   ROH22309   7.497  13.639   3.800
 1848CHOL    R122310   7.296  13.298   3.971
 1848CHOL    R222311   7.532  13.506   4.120
 1848CHOL    R322312   7.226  13.109   4.348
 1848CHOL    R422313   7.440  13.405   4.398
 1848CHOL    R522314   7.309  13.623   4.129
 1848CHOL    R622315   7.188  13.346   4.486
 1848CHOL    C122316   7.326  13.133   4.738
 1848CHOL    C222317   6.974  13.096   5.029
 1849CHOL   ROH22318  19.019  11.535   3.913
 1849CHOL    R122319  19.431  11.659   3.927
 1849CHOL    R222320  19.153  11.824   4.054
 1849CHOL    R322321  19.686  11.943   4.120
 1849CHOL    R422322  19.340  11.992   4.235
 1849CHOL    R522323  19.218  11.643   4.218
 1849CHOL    R622324  19.566  11.917   4.368
 1849CHOL    C122325  19.676  12.257   4.373
 1849CHOL    C222326  19.971  12.446   4.630
 1850CHOL   ROH22327  11.842  22.905   3.281
 1850CHOL    R122328  11.864  23.212   3.583
 1850CHOL    R222329  11.645  22.942   3.566
 1850CHOL    R322330  11.720  23.302   3.976
 1850CHOL    R422331  11.585  22.977   3.868
 1850CHOL    R522332  11.865  22.859   3.657
 1850CHOL    R622333  11.754  23.045   4.072
 1850CHOL    C122334  11.475  23.161   4.263
 1850CHOL    C222335  11.460  23.348   4.674
 1851CHOL   ROH22336  10.665  29.737   3.542
 1851CHOL    R122337  10.361  29.857   3.824
 1851CHOL    R222338  10.622  29.631   3.871
 1851CHOL    R322339  10.268  29.835   4.240
 1851CHOL    R422340  10.586  29.660   4.177
 1851CHOL    R522341  10.715  29.864   3.897
 1851CHOL    R622342  10.527  29.882   4.324
 1851CHOL    C122343  10.400  29.675   4.586
 1851CHOL    C222344  10.059  29.725   4.860
 1852CHOL   ROH22345  17.303  35.029   6.854
 1852CHOL    R122346  17.418  35.006   6.439
 1852CHOL    R222347  17.114  34.916   6.584
 1852CHOL    R322348  17.249  34.948   6.051
 1852CHOL    R422349  16.982  34.928   6.304
 1852CHOL    R522350  17.115  35.166   6.554
 1852CHOL    R622351  17.025  35.104   6.099
 1852CHOL    C122352  16.900  34.863   5.867
 1852CHOL    C222353  16.874  34.641   5.500
 1853CHOL   ROH22354  11.458  13.444   3.882
 1853CHOL    R122355  11.347  13.656   4.240
 1853CHOL    R222356  11.523  13.358   4.213
 1853CHOL    R322357  11.429  13.666   4.660
 1853CHOL    R422358  11.626  13.397   4.503
 1853CHOL    R522359  11.684  13.547   4.170
 1853CHOL    R622360  11.702  13.626   4.630
 1853CHOL    C122361  11.637  13.472   4.946
 1853CHOL    C222362  11.764  13.538   5.361
 1854CHOL   ROH22363   5.476  34.045   6.789
 1854CHOL    R122364   5.398  34.155   6.379
 1854CHOL    R222365   5.374  33.840   6.525
 1854CHOL    R322366   5.220  34.002   6.022
 1854CHOL    R422367   5.197  33.748   6.288
 1854CHOL    R522368   5.165  33.970   6.583
 1854CHOL    R622369   5.005  33.886   6.152
 1854CHOL    C122370   5.049  33.669   5.871
 1854CHOL    C222371   4.845  33.632   5.529
 1855CHOL   ROH22372   2.528  29.034   6.520
 1855CHOL    R122373   2.566  28.910   6.108
 1855CHOL    R222374   2.373  29.169   6.238
 1855CHOL    R322375   2.475  29.043   5.712
 1855CHOL    R422376   2.355  29.293   5.955
 1855CHOL    R522377   2.610  29.251   6.219
 1855CHOL    R622378   2.545  29.306   5.759
 1855CHOL    C122379   2.289  29.340   5.513
 1855CHOL    C222380   2.116  29.409   5.081
 1856CHOL   ROH22381  33.153   7.309   6.768
 1856CHOL    R122382  33.046   7.538   6.418
 1856CHOL    R222383  33.231   7.244   6.434
 1856CHOL    R322384  33.039   7.509   5.992
 1856CHOL    R422385  33.176   7.198   6.133
 1856CHOL    R522386  32.986   7.183   6.450
 1856CHOL    R622387  32.950   7.247   5.988
 1856CHOL    C122388  33.145   7.264   5.689
 1856CHOL    C222389  33.102   7.307   5.267
 1857CHOL   ROH22390  19.997  35.683   6.998
 1857CHOL    R122391  20.176  35.598   6.615
 1857CHOL    R222392  19.840  35.655   6.688
 1857CHOL    R322393  20.085  35.606   6.197
 1857CHOL    R422394  19.789  35.714   6.388
 1857CHOL    R522395  19.957  35.879   6.674
 1857CHOL    R622396  19.947  35.846   6.208
 1857CHOL    C122397  19.781  35.676   5.940
 1857CHOL    C222398  19.851  35.760   5.548
 1858CHOL   ROH22399  27.856  21.468   3.874
 1858CHOL    R122400  27.850  21.673   4.254
 1858CHOL    R222401  27.579  21.563   4.065
 1858CHOL    R322402  27.584  21.769   4.575
 1858CHOL    R422403  27.400  21.582   4.317
 1858CHOL    R522404  27.672  21.365   4.191
 1858CHOL    R622405  27.460  21.521   4.576
 1858CHOL    C122406  27.198  21.739   4.686
 1858CHOL    C222407  27.105  22.050   4.966
 1859CHOL   ROH22408  31.493  25.438   6.509
 1859CHOL    R122409  31.449  25.432   6.080
 1859CHOL    R222410  31.472  25.708   6.291
 1859CHOL    R322411  31.478  25.691   5.740
 1859CHOL    R422412  31.547  25.884   6.046
 1859CHOL    R522413  31.705  25.620   6.252
 1859CHOL    R622414  31.704  25.823   5.831
 1859CHOL    C122415  31.539  26.077   5.640
 1859CHOL    C222416  31.507  26.309   5.276
 1860CHOL   ROH22417  10.067  15.339   7.202
 1860CHOL    R122418   9.795  15.491   6.903
 1860CHOL    R222419  10.066  15.277   6.859
 1860CHOL    R322420   9.680  15.426   6.497
 1860CHOL    R422421   9.949  15.191   6.586
 1860CHOL    R522422   9.872  15.140   6.944
 1860CHOL    R622423   9.689  15.150   6.514
 1860CHOL    C122424   9.775  15.207   6.172
 1860CHOL    C222425   9.783  15.323   5.746
 1861CHOL   ROH22426  28.749  17.120   5.900
 1861CHOL    R122427  29.000  17.179   5.555
 1861CHOL    R222428  28.658  17.115   5.564
 1861CHOL    R322429  28.974  17.252   5.134
 1861CHOL    R422430  28.635  17.221   5.273
 1861CHOL    R522431  28.693  17.360   5.612
 1861CHOL    R622432  28.764  17.431   5.155
 1861CHOL    C122433  28.706  17.283   4.834
 1861CHOL    C222434  28.757  17.293   4.405
 1862CHOL   ROH22435  28.433   2.896   6.961
 1862CHOL    R122436  28.351   2.601   6.657
 1862CHOL    R222437  28.344   2.948   6.627
 1862CHOL    R322438  28.302   2.565   6.234
 1862CHOL    R422439  28.364   2.918   6.320
 1862CHOL    R522440  28.585   2.873   6.613
 1862CHOL    R622441  28.509   2.739   6.172
 1862CHOL    C122442  28.285   2.787   5.897
 1862CHOL    C222443  28.396   2.492   5.600
 1863CHOL   ROH22444  21.030  29.228   6.397
 1863CHOL    R122445  21.195  28.924   6.139
 1863CHOL    R222446  20.925  29.134   6.078
 1863CHOL    R322447  21.180  28.787   5.734
 1863CHOL    R422448  20.953  29.074   5.775
 1863CHOL    R522449  21.137  29.264   6.034
 1863CHOL    R622450  21.178  29.042   5.625
 1863CHOL    C122451  20.991  28.855   5.385
 1863CHOL    C222452  20.961  28.634   5.017
 1864CHOL   ROH22453   7.780   0.518   3.492
 1864CHOL    R122454   8.008   0.526   3.858
 1864CHOL    R222455   7.663   0.504   3.820
 1864CHOL    R322456   7.966   0.453   4.277
 1864CHOL    R422457   7.642   0.398   4.111
 1864CHOL    R522458   7.760   0.274   3.783
 1864CHOL    R622459   7.808   0.228   4.246
 1864CHOL    C122460   7.690   0.360   4.556
 1864CHOL    C222461   7.826   0.229   4.933
 1865CHOL   ROH22462  27.181  21.723   3.617
 1865CHOL    R122463  27.072  22.088   3.818
 1865CHOL    R222464  27.038  21.762   3.933
 1865CHOL    R322465  26.959  22.234   4.204
 1865CHOL    R422466  27.011  21.870   4.222
 1865CHOL    R522467  27.278  21.832   3.968
 1865CHOL    R622468  27.141  22.078   4.342
 1865CHOL    C122469  26.874  22.108   4.578
 1865CHOL    C222470  26.684  22.248   4.943
 1866CHOL   ROH22471  27.770  22.916   6.813
 1866CHOL    R122472  28.012  22.776   6.485
 1866CHOL    R222473  27.667  22.823   6.493
 1866CHOL    R322474  27.991  22.704   6.064
 1866CHOL    R422475  27.664  22.825   6.183
 1866CHOL    R522476  27.776  23.048   6.457
 1866CHOL    R622477  27.845  22.933   6.009
 1866CHOL    C122478  27.732  22.708   5.755
 1866CHOL    C222479  27.763  22.713   5.306
 1867CHOL   ROH22480  27.380   4.915   4.053
 1867CHOL    R122481  27.584   5.133   4.365
 1867CHOL    R222482  27.243   5.125   4.296
 1867CHOL    R322483  27.504   5.349   4.725
 1867CHOL    R422484  27.186   5.232   4.581
 1867CHOL    R522485  27.301   4.916   4.425
 1867CHOL    R622486  27.312   5.172   4.816
 1867CHOL    C122487  27.200   5.483   4.954
 1867CHOL    C222488  27.380   5.616   5.326
 1868CHOL   ROH22489  20.364  18.425   3.931
 1868CHOL    R122490  20.515  18.599   4.295
 1868CHOL    R222491  20.203  18.456   4.238
 1868CHOL    R322492  20.426  18.625   4.713
 1868CHOL    R422493  20.165  18.427   4.545
 1868CHOL    R522494  20.368  18.270   4.277
 1868CHOL    R622495  20.349  18.360   4.736
 1868CHOL    C122496  20.146  18.520   4.984
 1868CHOL    C222497  20.228  18.657   5.421
 1869CHOL   ROH22498  18.296  17.404   7.067
 1869CHOL    R122499  18.192  17.500   6.660
 1869CHOL    R222500  18.433  17.275   6.773
 1869CHOL    R322501  18.251  17.360   6.260
 1869CHOL    R422502  18.432  17.140   6.494
 1869CHOL    R522503  18.207  17.162   6.787
 1869CHOL    R622504  18.223  17.092   6.325
 1869CHOL    C122505  18.450  17.079   6.049
 1869CHOL    C222506  18.315  17.144   5.636
 1870CHOL   ROH22507  13.862  33.474   4.559
 1870CHOL    R122508  13.749  33.449   4.975
 1870CHOL    R222509  13.993  33.266   4.807
 1870CHOL    R322510  13.884  33.286   5.347
 1870CHOL    R422511  14.121  33.194   5.080
 1870CHOL    R522512  14.090  33.493   4.863
 1870CHOL    R622513  14.150  33.349   5.304
 1870CHOL    C122514  14.173  33.053   5.504
 1870CHOL    C222515  14.044  32.780   5.823
 1871CHOL   ROH22516  20.817  22.900   5.671
 1871CHOL    R122517  20.505  22.754   5.930
 1871CHOL    R222518  20.771  22.963   6.010
 1871CHOL    R322519  20.337  22.821   6.317
 1871CHOL    R422520  20.619  23.052   6.266
 1871CHOL    R522521  20.592  23.103   5.900
 1871CHOL    R622522  20.353  23.097   6.301
 1871CHOL    C122523  20.390  23.040   6.652
 1871CHOL    C222524  20.224  23.003   7.051
 1872CHOL   ROH22525   1.858  20.165   4.483
 1872CHOL    R122526   2.143  20.255   4.795
 1872CHOL    R222527   1.872  20.037   4.807
 1872CHOL    R322528   2.273  20.112   5.176
 1872CHOL    R422529   1.998  19.899   5.053
 1872CHOL    R522530   2.061  19.919   4.689
 1872CHOL    R622531   2.261  19.844   5.105
 1872CHOL    C122532   2.188  19.833   5.455
 1872CHOL    C222533   2.344  19.868   5.855
 1873CHOL   ROH22534  20.833  15.442   6.684
 1873CHOL    R122535  20.783  15.543   6.267
 1873CHOL    R222536  21.072  15.562   6.460
 1873CHOL    R322537  21.012  15.630   5.917
 1873CHOL    R422538  21.240  15.570   6.199
 1873CHOL    R522539  21.041  15.322   6.389
 1873CHOL    R622540  21.202  15.435   5.965
 1873CHOL    C122541  21.392  15.684   5.792
 1873CHOL    C222542  21.278  15.913   5.442
 1874CHOL   ROH22543  34.272  28.149   7.341
 1874CHOL    R122544  34.308  28.459   7.043
 1874CHOL    R222545  34.367  28.118   7.007
 1874CHOL    R322546  34.351  28.509   6.621
 1874CHOL    R422547  34.343  28.150   6.700
 1874CHOL    R522548  34.118  28.155   6.994
 1874CHOL    R622549  34.173  28.308   6.555
 1874CHOL    C122550  34.401  28.299   6.280
 1874CHOL    C222551  34.596  28.389   5.909
 1875CHOL   ROH22552  21.541   2.852   6.588
 1875CHOL    R122553  21.524   3.074   6.219
 1875CHOL    R222554  21.701   2.782   6.287
 1875CHOL    R322555  21.625   3.037   5.805
 1875CHOL    R422556  21.725   2.730   5.982
 1875CHOL    R522557  21.461   2.719   6.242
 1875CHOL    R622558  21.542   2.774   5.784
 1875CHOL    C122559  21.806   2.788   5.544
 1875CHOL    C222560  21.910   3.049   5.217
 1876CHOL   ROH22561  23.755  28.599   4.479
 1876CHOL    R122562  24.155  28.641   4.322
 1876CHOL    R222563  23.997  28.836   4.564
 1876CHOL    R322564  24.523  28.844   4.402
 1876CHOL    R422565  24.274  28.940   4.656
 1876CHOL    R522566  24.080  28.625   4.675
 1876CHOL    R622567  24.511  28.806   4.676
 1876CHOL    C122568  24.687  29.116   4.651
 1876CHOL    C222569  24.983  29.327   4.407
 1877CHOL   ROH22570  22.484  12.368   6.691
 1877CHOL    R122571  22.786  12.277   6.396
 1877CHOL    R222572  22.446  12.205   6.385
 1877CHOL    R322573  22.826  12.149   5.990
 1877CHOL    R422574  22.469  12.166   6.078
 1877CHOL    R522575  22.477  12.447   6.319
 1877CHOL    R622576  22.618  12.305   5.896
 1877CHOL    C122577  22.608  12.025   5.675
 1877CHOL    C222578  22.719  11.642   5.445
 1878CHOL   ROH22579  10.063  17.089   4.939
 1878CHOL    R122580   9.803  16.745   4.930
 1878CHOL    R222581  10.014  16.848   5.187
 1878CHOL    R322582   9.635  16.448   5.189
 1878CHOL    R422583   9.854  16.671   5.384
 1878CHOL    R522584   9.804  16.987   5.198
 1878CHOL    R622585   9.585  16.624   5.396
 1878CHOL    C122586   9.646  16.318   5.570
 1878CHOL    C222587   9.593  15.919   5.698
 1879CHOL   ROH22588  19.439  17.319   4.969
 1879CHOL    R122589  19.701  17.467   5.279
 1879CHOL    R222590  19.353  17.475   5.269
 1879CHOL    R322591  19.692  17.605   5.683
 1879CHOL    R422592  19.350  17.522   5.575
 1879CHOL    R522593  19.423  17.244   5.342
 1879CHOL    R622594  19.510  17.415   5.768
 1879CHOL    C122595  19.436  17.691   5.983
 1879CHOL    C222596  19.481  17.761   6.432
 1880CHOL   ROH22597  25.659  20.648   3.616
 1880CHOL    R122598  25.649  20.264   3.812
 1880CHOL    R222599  25.614  20.579   3.955
 1880CHOL    R322600  25.543  20.084   4.185
 1880CHOL    R422601  25.486  20.447   4.204
 1880CHOL    R522602  25.393  20.515   3.852
 1880CHOL    R622603  25.314  20.235   4.219
 1880CHOL    C122604  25.416  20.176   4.556
 1880CHOL    C222605  25.496  19.980   4.939
 1881CHOL   ROH22606  13.663  24.344   6.759
 1881CHOL    R122607  13.640  24.119   6.392
 1881CHOL    R222608  13.504  24.431   6.461
 1881CHOL    R322609  13.532  24.164   5.981
 1881CHOL    R422610  13.477  24.483   6.157
 1881CHOL    R522611  13.748  24.463   6.408
 1881CHOL    R622612  13.646  24.415   5.954
 1881CHOL    C122613  13.375  24.431   5.722
 1881CHOL    C222614  13.290  24.400   5.281
 1882CHOL   ROH22615  21.111   6.000   5.139
 1882CHOL    R122616  20.927   5.799   5.474
 1882CHOL    R222617  21.266   5.830   5.402
 1882CHOL    R322618  21.025   5.630   5.854
 1882CHOL    R422619  21.332   5.759   5.696
 1882CHOL    R522620  21.189   6.045   5.509
 1882CHOL    R622621  21.201   5.832   5.925
 1882CHOL    C122622  21.340   5.549   6.093
 1882CHOL    C222623  21.318   5.496   6.531
 1883CHOL   ROH22624  28.750  33.031   6.533
 1883CHOL    R122625  28.858  33.199   6.150
 1883CHOL    R222626  28.583  33.001   6.228
 1883CHOL    R322627  28.696  33.268   5.761
 1883CHOL    R422628  28.444  33.097   5.968
 1883CHOL    R522629  28.531  33.237   6.300
 1883CHOL    R622630  28.447  33.345   5.853
 1883CHOL    C122631  28.368  33.197   5.537
 1883CHOL    C222632  28.292  33.032   5.144
 1884CHOL   ROH22633  15.006  17.042   7.492
 1884CHOL    R122634  14.703  17.051   7.185
 1884CHOL    R222635  15.045  17.103   7.151
 1884CHOL    R322636  14.662  17.053   6.759
 1884CHOL    R422637  15.019  17.049   6.847
 1884CHOL    R522638  15.005  16.854   7.161
 1884CHOL    R622639  14.863  16.868   6.716
 1884CHOL    C122640  14.880  17.068   6.420
 1884CHOL    C222641  14.691  17.203   6.073
 1885CHOL   ROH22642  27.260  18.358   6.850
 1885CHOL    R122643  27.382  18.210   6.464
 1885CHOL    R222644  27.342  18.541   6.564
 1885CHOL    R322645  27.555  18.344   6.096
 1885CHOL    R422646  27.516  18.631   6.324
 1885CHOL    R522647  27.566  18.460   6.648
 1885CHOL    R622648  27.738  18.513   6.217
 1885CHOL    C122649  27.675  18.679   5.906
 1885CHOL    C222650  27.668  18.797   5.481
 1886CHOL   ROH22651  15.333  22.559   3.736
 1886CHOL    R122652  15.385  22.377   4.123
 1886CHOL    R222653  15.386  22.715   4.043
 1886CHOL    R322654  15.391  22.477   4.539
 1886CHOL    R422655  15.334  22.782   4.341
 1886CHOL    R522656  15.146  22.639   4.057
 1886CHOL    R622657  15.177  22.652   4.523
 1886CHOL    C122658  15.371  22.792   4.789
 1886CHOL    C222659  15.510  22.742   5.177
 1887CHOL   ROH22660  13.301  29.058   6.897
 1887CHOL    R122661  13.203  29.354   6.600
 1887CHOL    R222662  13.394  29.066   6.561
 1887CHOL    R322663  13.213  29.416   6.177
 1887CHOL    R422664  13.353  29.085   6.255
 1887CHOL    R522665  13.151  29.000   6.553
 1887CHOL    R622666  13.131  29.159   6.114
 1887CHOL    C122667  13.338  29.243   5.834
 1887CHOL    C222668  13.260  29.328   5.420
 1888CHOL   ROH22669  22.639  35.374   6.775
 1888CHOL    R122670  22.837  35.517   6.420
 1888CHOL    R222671  22.710  35.199   6.481
 1888CHOL    R322672  22.908  35.408   6.012
 1888CHOL    R422673  22.712  35.144   6.177
 1888CHOL    R522674  22.518  35.349   6.416
 1888CHOL    R622675  22.653  35.311   5.970
 1888CHOL    C122676  22.848  35.108   5.750
 1888CHOL    C222677  23.130  34.990   5.412
 1889CHOL   ROH22678   3.542   1.015   6.888
 1889CHOL    R122679   3.742   0.888   6.527
 1889CHOL    R222680   3.415   1.003   6.563
 1889CHOL    R322681   3.697   0.898   6.102
 1889CHOL    R422682   3.406   1.060   6.259
 1889CHOL    R522683   3.568   1.204   6.559
 1889CHOL    R622684   3.601   1.158   6.095
 1889CHOL    C122685   3.438   1.010   5.814
 1889CHOL    C222686   3.404   0.837   5.433
 1890CHOL   ROH22687   0.692  16.690   5.088
 1890CHOL    R122688   1.111  16.686   4.982
 1890CHOL    R222689   0.947  16.897   5.205
 1890CHOL    R322690   1.486  16.846   5.110
 1890CHOL    R422691   1.220  16.969   5.332
 1890CHOL    R522692   0.991  16.679   5.323
 1890CHOL    R622693   1.436  16.809   5.379
 1890CHOL    C122694   1.648  17.097   5.380
 1890CHOL    C222695   2.081  17.088   5.537
 1891CHOL   ROH22696  19.402   1.948   3.870
 1891CHOL    R122697  19.500   1.713   4.218
 1891CHOL    R222698  19.395   2.044   4.205
 1891CHOL    R322699  19.463   1.719   4.644
 1891CHOL    R422700  19.318   2.027   4.505
 1891CHOL    R522701  19.192   1.897   4.182
 1891CHOL    R622702  19.206   1.821   4.643
 1891CHOL    C122703  19.339   1.953   4.947
 1891CHOL    C222704  19.216   1.694   5.276
 1892CHOL   ROH22705  25.957  29.823   3.164
 1892CHOL    R122706  25.981  30.077   3.511
 1892CHOL    R222707  25.869  29.748   3.493
 1892CHOL    R322708  25.961  30.058   3.938
 1892CHOL    R422709  25.908  29.722   3.799
 1892CHOL    R522710  26.121  29.745   3.497
 1892CHOL    R622711  26.105  29.823   3.958
 1892CHOL    C122712  25.888  29.802   4.241
 1892CHOL    C222713  25.949  29.893   4.669
 1893CHOL   ROH22714  25.977  19.020   3.923
 1893CHOL    R122715  26.196  18.882   4.268
 1893CHOL    R222716  25.901  18.753   4.134
 1893CHOL    R322717  26.218  18.548   4.534
 1893CHOL    R422718  25.951  18.489   4.289
 1893CHOL    R522719  26.094  18.666   3.997
 1893CHOL    R622720  26.185  18.358   4.336
 1893CHOL    C122721  26.037  18.197   4.619
 1893CHOL    C222722  25.954  18.210   5.044
 1894CHOL   ROH22723  10.443   8.214   6.465
 1894CHOL    R122724  10.502   8.345   6.058
 1894CHOL    R222725  10.718   8.159   6.257
 1894CHOL    R322726  10.757   8.278   5.721
 1894CHOL    R422727  10.868   8.068   6.002
 1894CHOL    R522728  10.543   8.003   6.165
 1894CHOL    R622729  10.769   8.004   5.756
 1894CHOL    C122730  11.087   8.076   5.609
 1894CHOL    C222731  11.208   8.053   5.208
 1895CHOL   ROH22732   9.738  26.106   4.159
 1895CHOL    R122733   9.425  26.091   4.456
 1895CHOL    R222734   9.528  25.839   4.239
 1895CHOL    R322735   9.174  25.811   4.660
 1895CHOL    R422736   9.389  25.630   4.422
 1895CHOL    R522737   9.690  25.846   4.433
 1895CHOL    R622738   9.374  25.622   4.694
 1895CHOL    C122739   9.081  25.419   4.671
 1895CHOL    C222740   8.748  25.220   4.879
 1896CHOL   ROH22741   9.426  10.427   6.741
 1896CHOL    R122742   9.071  10.279   6.545
 1896CHOL    R222743   9.283  10.535   6.441
 1896CHOL    R322744   8.866  10.299   6.170
 1896CHOL    R422745   9.169  10.508   6.155
 1896CHOL    R522746   9.390  10.315   6.380
 1896CHOL    R622747   9.096  10.283   6.018
 1896CHOL    C122748   8.881  10.480   5.810
 1896CHOL    C222749   8.587  10.533   5.485
 1897CHOL   ROH22750  31.888  14.130   6.886
 1897CHOL    R122751  31.931  13.878   6.538
 1897CHOL    R222752  31.884  14.222   6.549
 1897CHOL    R322753  32.001  13.903   6.117
 1897CHOL    R422754  31.988  14.242   6.258
 1897CHOL    R522755  32.128  14.176   6.594
 1897CHOL    R622756  32.190  14.104   6.137
 1897CHOL    C122757  32.042  14.170   5.818
 1897CHOL    C222758  31.920  14.046   5.420
 1898CHOL   ROH22759  18.545  33.253   7.085
 1898CHOL    R122760  18.738  33.190   6.705
 1898CHOL    R222761  18.407  33.279   6.766
 1898CHOL    R322762  18.677  33.256   6.286
 1898CHOL    R422763  18.383  33.377   6.473
 1898CHOL    R522764  18.548  33.487   6.785
 1898CHOL    R622765  18.567  33.508   6.319
 1898CHOL    C122766  18.402  33.391   6.024
 1898CHOL    C222767  18.491  33.329   5.601
 1899CHOL   ROH22768  34.651   6.799   3.916
 1899CHOL    R122769  34.774   7.049   4.245
 1899CHOL    R222770  34.609   6.743   4.258
 1899CHOL    R322771  34.823   7.039   4.669
 1899CHOL    R422772  34.695   6.714   4.554
 1899CHOL    R522773  34.855   6.698   4.221
 1899CHOL    R622774  34.930   6.784   4.674
 1899CHOL    C122775  34.763   6.802   4.989
 1899CHOL    C222776  34.740   6.806   5.432
 1900CHOL   ROH22777  28.842  23.454   3.897
 1900CHOL    R122778  29.073  23.653   4.202
 1900CHOL    R222779  28.977  23.319   4.189
 1900CHOL    R322780  29.321  23.567   4.540
 1900CHOL    R422781  29.197  23.251   4.396
 1900CHOL    R522782  29.178  23.348   4.039
 1900CHOL    R622783  29.450  23.353   4.420
 1900CHOL    C122784  29.453  23.260   4.765
 1900CHOL    C222785  29.665  23.250   5.158
 1901CHOL   ROH22786   9.531  35.584   6.152
 1901CHOL    R122787   9.346  35.225   6.001
 1901CHOL    R222788   9.291  35.553   5.901
 1901CHOL    R322789   9.107  35.086   5.675
 1901CHOL    R422790   9.166  35.448   5.638
 1901CHOL    R522791   9.503  35.473   5.790
 1901CHOL    R622792   9.241  35.235   5.484
 1901CHOL    C122793   8.911  35.218   5.348
 1901CHOL    C222794   8.762  35.009   4.960
 1902CHOL   ROH22795  17.761  34.451   6.933
 1902CHOL    R122796  17.528  34.579   6.594
 1902CHOL    R222797  17.865  34.492   6.603
 1902CHOL    R322798  17.546  34.597   6.167
 1902CHOL    R422799  17.859  34.453   6.296
 1902CHOL    R522800  17.729  34.279   6.596
 1902CHOL    R622801  17.662  34.348   6.138
 1902CHOL    C122802  17.794  34.525   5.857
 1902CHOL    C222803  17.774  34.496   5.397
 1903CHOL   ROH22804  21.870   8.554   6.751
 1903CHOL    R122805  21.949   8.797   6.404
 1903CHOL    R222806  21.948   8.450   6.428
 1903CHOL    R322807  21.987   8.767   5.979
 1903CHOL    R422808  21.921   8.433   6.120
 1903CHOL    R522809  21.709   8.527   6.408
 1903CHOL    R622810  21.776   8.590   5.950
 1903CHOL    C122811  21.992   8.496   5.681
 1903CHOL    C222812  22.147   8.683   5.304
 1904CHOL   ROH22813  31.420  23.161   5.399
 1904CHOL    R122814  31.640  23.037   5.748
 1904CHOL    R222815  31.516  23.353   5.674
 1904CHOL    R322816  31.744  23.171   6.141
 1904CHOL    R422817  31.541  23.429   5.973
 1904CHOL    R522818  31.326  23.213   5.763
 1904CHOL    R622819  31.494  23.277   6.195
 1904CHOL    C122820  31.709  23.490   6.385
 1904CHOL    C222821  31.737  23.562   6.799
 1905CHOL   ROH22822  14.283  33.661   7.285
 1905CHOL    R122823  14.412  33.740   6.881
 1905CHOL    R222824  14.362  33.432   7.034
 1905CHOL    R322825  14.467  33.543   6.506
 1905CHOL    R422826  14.347  33.300   6.755
 1905CHOL    R522827  14.137  33.521   6.963
 1905CHOL    R622828  14.234  33.394   6.524
 1905CHOL    C122829  14.447  33.179   6.333
 1905CHOL    C222830  14.563  32.947   5.989
 1906CHOL   ROH22831   2.529  11.930   6.411
 1906CHOL    R122832   2.833  12.200   6.267
 1906CHOL    R222833   2.698  11.923   6.106
 1906CHOL    R322834   3.039  12.306   5.907
 1906CHOL    R422835   2.803  12.033   5.836
 1906CHOL    R522836   2.536  12.115   6.079
 1906CHOL    R622837   2.814  12.290   5.746
 1906CHOL    C122838   3.076  12.200   5.520
 1906CHOL    C222839   3.423  12.336   5.300
 1907CHOL   ROH22840  31.404  29.109   5.245
 1907CHOL    R122841  31.620  29.393   5.487
 1907CHOL    R222842  31.742  29.194   5.229
 1907CHOL    R322843  31.994  29.601   5.501
 1907CHOL    R422844  31.988  29.381   5.206
 1907CHOL    R522845  31.626  29.394   5.126
 1907CHOL    R622846  32.001  29.653   5.230
 1907CHOL    C122847  32.349  29.627   5.311
 1907CHOL    C222848  32.650  29.847   5.541
 1908CHOL   ROH22849  28.434  15.688   4.048
 1908CHOL    R122850  28.394  15.505   4.436
 1908CHOL    R222851  28.527  15.816   4.358
 1908CHOL    R322852  28.416  15.601   4.853
 1908CHOL    R422853  28.491  15.902   4.654
 1908CHOL    R522854  28.276  15.837   4.359
 1908CHOL    R622855  28.287  15.844   4.827
 1908CHOL    C122856  28.506  15.904   5.103
 1908CHOL    C222857  28.565  15.740   5.517
 1909CHOL   ROH22858  27.286  22.456   6.913
 1909CHOL    R122859  27.358  22.209   6.567
 1909CHOL    R222860  27.210  22.524   6.579
 1909CHOL    R322861  27.360  22.228   6.140
 1909CHOL    R422862  27.263  22.556   6.276
 1909CHOL    R522863  27.460  22.555   6.590
 1909CHOL    R622864  27.479  22.478   6.129
 1909CHOL    C122865  27.278  22.478   5.834
 1909CHOL    C222866  27.203  22.317   5.453
 1910CHOL   ROH22867  11.878  17.832   6.939
 1910CHOL    R122868  11.772  18.057   6.586
 1910CHOL    R222869  12.011  17.805   6.618
 1910CHOL    R322870  11.827  18.053   6.162
 1910CHOL    R422871  12.007  17.768   6.310
 1910CHOL    R522872  11.784  17.696   6.597
 1910CHOL    R622873  11.796  17.779   6.137
 1910CHOL    C122874  12.021  17.855   5.870
 1910CHOL    C222875  11.950  17.826   5.435
 1911CHOL   ROH22876   8.111  32.266   3.642
 1911CHOL    R122877   8.183  31.987   3.963
 1911CHOL    R222878   8.114  32.327   3.985
 1911CHOL    R322879   8.146  31.953   4.388
 1911CHOL    R422880   8.035  32.288   4.282
 1911CHOL    R522881   7.896  32.206   3.949
 1911CHOL    R622882   7.901  32.081   4.400
 1911CHOL    C122883   8.047  32.167   4.715
 1911CHOL    C222884   8.262  32.055   5.081
 1912CHOL   ROH22885  12.921   7.635   7.382
 1912CHOL    R122886  13.181   7.631   7.038
 1912CHOL    R222887  12.913   7.421   7.107
 1912CHOL    R322888  13.211   7.463   6.646
 1912CHOL    R422889  12.903   7.343   6.807
 1912CHOL    R522890  12.821   7.638   7.016
 1912CHOL    R622891  12.943   7.498   6.586
 1912CHOL    C122892  13.025   7.206   6.397
 1912CHOL    C222893  13.045   7.109   5.969
 1913CHOL   ROH22894   9.640  18.403   4.236
 1913CHOL    R122895   9.618  18.481   4.660
 1913CHOL    R222896   9.779  18.219   4.498
 1913CHOL    R322897   9.797  18.360   5.029
 1913CHOL    R422898   9.947  18.169   4.753
 1913CHOL    R522899   9.927  18.422   4.484
 1913CHOL    R622900  10.054  18.350   4.928
 1913CHOL    C122901  10.062  18.098   5.182
 1913CHOL    C222902  10.313  18.245   5.474
 1914CHOL   ROH22903   5.155  31.409   3.844
 1914CHOL    R122904   5.279  31.606   4.207
 1914CHOL    R222905   5.027  31.370   4.166
 1914CHOL    R322906   5.233  31.580   4.631
 1914CHOL    R422907   5.035  31.314   4.471
 1914CHOL    R522908   5.248  31.248   4.175
 1914CHOL    R622909   5.250  31.304   4.639
 1914CHOL    C122910   5.034  31.375   4.916
 1914CHOL    C222911   5.112  31.303   5.337
 1915CHOL   ROH22912   6.717  21.493   3.777
 1915CHOL    R122913   7.135  21.497   3.885
 1915CHOL    R222914   6.872  21.335   4.046
 1915CHOL    R322915   7.413  21.296   4.140
 1915CHOL    R422916   7.078  21.152   4.189
 1915CHOL    R522917   6.941  21.194   3.847
 1915CHOL    R622918   7.309  21.044   4.093
 1915CHOL    C122919   7.433  21.014   4.427
 1915CHOL    C222920   7.667  21.070   4.761
 1916CHOL   ROH22921  27.599  32.902   3.421
 1916CHOL    R122922  27.573  32.557   3.678
 1916CHOL    R222923  27.680  32.878   3.759
 1916CHOL    R322924  27.586  32.449   4.092
 1916CHOL    R422925  27.635  32.813   4.059
 1916CHOL    R522926  27.427  32.877   3.759
 1916CHOL    R622927  27.437  32.666   4.176
 1916CHOL    C122928  27.649  32.607   4.458
 1916CHOL    C222929  27.737  32.506   4.891
 1917CHOL   ROH22930  17.243  10.445   4.139
 1917CHOL    R122931  17.334  10.431   4.560
 1917CHOL    R222932  17.031  10.507   4.408
 1917CHOL    R322933  17.142  10.427   4.942
 1917CHOL    R422934  16.887  10.449   4.677
 1917CHOL    R522935  17.056  10.256   4.410
 1917CHOL    R622936  16.938  10.256   4.863
 1917CHOL    C122937  16.778  10.455   5.113
 1917CHOL    C222938  16.758  10.553   5.524
 1918CHOL   ROH22939   7.773   5.598   6.523
 1918CHOL    R122940   7.604   5.573   6.127
 1918CHOL    R222941   7.932   5.648   6.217
 1918CHOL    R322942   7.723   5.553   5.717
 1918CHOL    R422943   8.023   5.579   5.929
 1918CHOL    R522944   7.903   5.398   6.229
 1918CHOL    R622945   7.935   5.381   5.762
 1918CHOL    C122946   8.050   5.569   5.481
 1918CHOL    C222947   8.130   5.461   5.074
 1919CHOL   ROH22948  29.059  11.058   3.891
 1919CHOL    R122949  29.190  11.278   4.238
 1919CHOL    R222950  29.130  10.937   4.210
 1919CHOL    R322951  29.354  11.217   4.628
 1919CHOL    R422952  29.298  10.891   4.467
 1919CHOL    R522953  29.358  10.984   4.114
 1919CHOL    R622954  29.526  11.016   4.549
 1919CHOL    C122955  29.454  10.924   4.887
 1919CHOL    C222956  29.534  10.918   5.326
 1920CHOL   ROH22957  26.327  17.336   7.002
 1920CHOL    R122958  26.387  17.233   6.588
 1920CHOL    R222959  26.138  17.120   6.803
 1920CHOL    R322960  26.188  17.042   6.261
 1920CHOL    R422961  25.971  17.032   6.558
 1920CHOL    R522962  26.072  17.349   6.720
 1920CHOL    R622963  25.941  17.155   6.316
 1920CHOL    C122964  25.850  16.841   6.169
 1920CHOL    C222965  25.775  16.717   5.759
 1921CHOL   ROH22966   5.941  23.611   7.075
 1921CHOL    R122967   5.756  23.766   6.718
 1921CHOL    R222968   6.091  23.780   6.810
 1921CHOL    R322969   5.857  23.919   6.331
 1921CHOL    R422970   6.166  23.837   6.514
 1921CHOL    R522971   6.046  23.550   6.715
 1921CHOL    R622972   6.058  23.734   6.286
 1921CHOL    C122973   6.174  24.020   6.104
 1921CHOL    C222974   6.151  24.216   5.721
 1922CHOL   ROH22975   4.502  23.186   6.992
 1922CHOL    R122976   4.274  23.011   6.671
 1922CHOL    R222977   4.453  23.309   6.669
 1922CHOL    R322978   4.211  23.047   6.250
 1922CHOL    R422979   4.452  23.302   6.359
 1922CHOL    R522980   4.616  23.119   6.636
 1922CHOL    R622981   4.478  23.089   6.190
 1922CHOL    C122982   4.313  23.275   5.933
 1922CHOL    C222983   4.390  22.924   5.671
 1923CHOL   ROH22984   3.568   4.967   4.009
 1923CHOL    R122985   3.430   5.312   4.228
 1923CHOL    R222986   3.599   5.034   4.350
 1923CHOL    R322987   3.474   5.503   4.608
 1923CHOL    R422988   3.676   5.196   4.602
 1923CHOL    R522989   3.769   5.188   4.244
 1923CHOL    R622990   3.746   5.459   4.625
 1923CHOL    C122991   3.648   5.455   4.968
 1923CHOL    C222992   3.714   5.808   5.222
 1924CHOL   ROH22993   7.317  17.621   3.851
 1924CHOL    R122994   7.519  17.279   4.020
 1924CHOL    R222995   7.516  17.607   4.138
 1924CHOL    R322996   7.719  17.155   4.378
 1924CHOL    R422997   7.609  17.504   4.415
 1924CHOL    R522998   7.301  17.495   4.210
 1924CHOL    R622999   7.538  17.277   4.548
 1924CHOL    C123000   7.842  17.293   4.736
 1924CHOL    C223001   8.169  17.052   4.919
 1925CHOL   ROH23002   5.798  27.830   6.989
 1925CHOL    R123003   5.564  27.552   6.755
 1925CHOL    R223004   5.617  27.891   6.697
 1925CHOL    R323005   5.373  27.518   6.374
 1925CHOL    R423006   5.529  27.851   6.403
 1925CHOL    R523007   5.820  27.766   6.615
 1925CHOL    R623008   5.578  27.642   6.235
 1925CHOL    C123009   5.291  27.730   6.041
 1925CHOL    C223010   5.123  27.797   5.678
 1926CHOL   ROH23011   1.627   1.445   3.794
 1926CHOL    R123012   1.605   1.189   4.140
 1926CHOL    R223013   1.409   1.467   4.066
 1926CHOL    R323014   1.349   1.099   4.471
 1926CHOL    R423015   1.198   1.369   4.270
 1926CHOL    R523016   1.320   1.271   3.934
 1926CHOL    R623017   1.115   1.114   4.324
 1926CHOL    C123018   1.008   1.219   4.649
 1926CHOL    C223019   0.899   1.048   5.026
 1927CHOL   ROH23020   1.762  17.292   7.135
 1927CHOL    R123021   1.704  17.052   6.782
 1927CHOL    R223022   1.633  17.390   6.826
 1927CHOL    R323023   1.619  17.091   6.364
 1927CHOL    R423024   1.626  17.425   6.519
 1927CHOL    R523025   1.880  17.368   6.782
 1927CHOL    R623026   1.784  17.311   6.328
 1927CHOL    C123027   1.529  17.367   6.084
 1927CHOL    C223028   1.359  17.248   5.698
 1928CHOL   ROH23029  15.443  25.545   7.080
 1928CHOL    R123030  15.490  25.163   6.886
 1928CHOL    R223031  15.423  25.471   6.740
 1928CHOL    R323032  15.543  24.992   6.498
 1928CHOL    R423033  15.516  25.358   6.467
 1928CHOL    R523034  15.670  25.460   6.787
 1928CHOL    R623035  15.721  25.186   6.411
 1928CHOL    C123036  15.559  25.092   6.107
 1928CHOL    C223037  15.735  24.865   5.769
 1929CHOL   ROH23038  17.472   2.867   6.045
 1929CHOL    R123039  17.545   3.051   5.662
 1929CHOL    R223040  17.728   2.800   5.819
 1929CHOL    R323041  17.778   2.997   5.307
 1929CHOL    R423042  17.856   2.728   5.546
 1929CHOL    R523043  17.526   2.694   5.711
 1929CHOL    R623044  17.742   2.723   5.297
 1929CHOL    C123045  18.065   2.762   5.150
 1929CHOL    C223046  18.182   2.958   4.762
 1930CHOL   ROH23047  10.925  19.968   6.423
 1930CHOL    R123048  10.921  19.969   5.991
 1930CHOL    R223049  11.064  19.734   6.204
 1930CHOL    R323050  11.001  19.713   5.658
 1930CHOL    R423051  11.070  19.531   5.970
 1930CHOL    R523052  10.817  19.686   6.191
 1930CHOL    R623053  10.886  19.489   5.773
 1930CHOL    C123054  11.142  19.347   5.567
 1930CHOL    C223055  11.299  19.116   5.213
 1931CHOL   ROH23056  33.375   6.895   3.692
 1931CHOL    R123057  33.475   6.981   4.103
 1931CHOL    R223058  33.206   6.797   3.981
 1931CHOL    R323059  33.376   6.860   4.501
 1931CHOL    R423060  33.171   6.670   4.262
 1931CHOL    R523061  33.409   6.648   3.979
 1931CHOL    R623062  33.362   6.590   4.440
 1931CHOL    C123063  33.124   6.621   4.706
 1931CHOL    C223064  33.227   6.544   5.116
 1932CHOL   ROH23065  12.736   3.916   3.793
 1932CHOL    R123066  12.593   3.793   4.181
 1932CHOL    R223067  12.904   3.927   4.098
 1932CHOL    R323068  12.691   3.825   4.596
 1932CHOL    R423069  12.948   3.999   4.397
 1932CHOL    R523070  12.739   4.117   4.115
 1932CHOL    R623071  12.768   4.091   4.581
 1932CHOL    C123072  12.976   3.967   4.844
 1932CHOL    C223073  12.939   3.982   5.265
 1933CHOL   ROH23074   3.471  32.794   4.202
 1933CHOL    R123075   3.385  32.594   4.574
 1933CHOL    R223076   3.583  32.875   4.522
 1933CHOL    R323077   3.419  32.651   4.997
 1933CHOL    R423078   3.560  32.943   4.823
 1933CHOL    R523079   3.342  32.949   4.524
 1933CHOL    R623080   3.345  32.917   4.990
 1933CHOL    C123081   3.566  32.907   5.271
 1933CHOL    C223082   3.475  32.820   5.672
 1934CHOL   ROH23083  22.448  23.016   6.785
 1934CHOL    R123084  22.352  22.665   6.553
 1934CHOL    R223085  22.416  22.988   6.439
 1934CHOL    R323086  22.354  22.524   6.149
 1934CHOL    R423087  22.471  22.873   6.156
 1934CHOL    R523088  22.638  22.876   6.487
 1934CHOL    R623089  22.597  22.641   6.085
 1934CHOL    C123090  22.425  22.646   5.771
 1934CHOL    C223091  22.148  22.542   5.453
 1935CHOL   ROH23092  13.070  27.839   3.379
 1935CHOL    R123093  13.073  27.618   3.750
 1935CHOL    R223094  12.991  27.953   3.699
 1935CHOL    R323095  12.939  27.649   4.155
 1935CHOL    R423096  12.846  27.955   3.973
 1935CHOL    R523097  12.791  27.813   3.636
 1935CHOL    R623098  12.694  27.761   4.090
 1935CHOL    C123099  12.760  27.904   4.411
 1935CHOL    C223100  12.634  27.950   4.835
 1936CHOL   ROH23101  24.704  34.335   7.135
 1936CHOL    R123102  24.606  34.284   6.718
 1936CHOL    R223103  24.534  34.554   6.924
 1936CHOL    R323104  24.467  34.506   6.380
 1936CHOL    R423105  24.486  34.729   6.672
 1936CHOL    R523106  24.773  34.576   6.849
 1936CHOL    R623107  24.621  34.729   6.435
 1936CHOL    C123108  24.335  34.872   6.274
 1936CHOL    C223109  24.489  34.894   5.859
 1937CHOL   ROH23110  10.638  32.530   3.571
 1937CHOL    R123111  10.795  32.343   3.927
 1937CHOL    R223112  10.593  32.625   3.904
 1937CHOL    R323113  10.748  32.345   4.352
 1937CHOL    R423114  10.518  32.591   4.203
 1937CHOL    R523115  10.446  32.422   3.881
 1937CHOL    R623116  10.472  32.362   4.344
 1937CHOL    C123117  10.549  32.535   4.647
 1937CHOL    C223118  10.411  32.508   5.063
 1938CHOL   ROH23119  25.162  24.546   7.008
 1938CHOL    R123120  24.942  24.608   6.642
 1938CHOL    R223121  25.241  24.436   6.687
 1938CHOL    R323122  24.924  24.469   6.239
 1938CHOL    R423123  25.196  24.295   6.415
 1938CHOL    R523124  25.052  24.284   6.756
 1938CHOL    R623125  24.964  24.203   6.304
 1938CHOL    C123126  25.112  24.224   5.979
 1938CHOL    C223127  25.062  24.388   5.562
 1939CHOL   ROH23128   9.071   9.833   6.672
 1939CHOL    R123129   9.127   9.974   6.268
 1939CHOL    R223130   8.923   9.715   6.379
 1939CHOL    R323131   8.955   9.940   5.878
 1939CHOL    R423132   8.765   9.731   6.114
 1939CHOL    R523133   8.803   9.932   6.422
 1939CHOL    R623134   8.693   9.950   5.968
 1939CHOL    C123135   8.665   9.746   5.676
 1939CHOL    C223136   8.627   9.618   5.276
 1940CHOL   ROH23137  12.676   5.849   3.593
 1940CHOL    R123138  12.412   5.826   3.934
 1940CHOL    R223139  12.757   5.873   3.932
 1940CHOL    R323140  12.406   5.903   4.354
 1940CHOL    R423141  12.740   5.981   4.222
 1940CHOL    R523142  12.648   6.094   3.882
 1940CHOL    R623143  12.549   6.139   4.336
 1940CHOL    C123144  12.644   6.017   4.659
 1940CHOL    C223145  12.404   5.976   5.000
 1941CHOL   ROH23146  35.658  10.779   6.967
 1941CHOL    R123147  35.938  10.691   6.651
 1941CHOL    R223148  35.596  10.627   6.659
 1941CHOL    R323149  35.948  10.575   6.239
 1941CHOL    R423150  35.598  10.597   6.351
 1941CHOL    R523151  35.628  10.870   6.599
 1941CHOL    R623152  35.737  10.739   6.164
 1941CHOL    C123153  35.706  10.466   5.935
 1941CHOL    C223154  35.801  10.310   5.536
 1942CHOL   ROH23155  10.750  27.363   3.322
 1942CHOL    R123156  10.492  27.529   3.625
 1942CHOL    R223157  10.723  27.271   3.657
 1942CHOL    R323158  10.436  27.530   4.049
 1942CHOL    R423159  10.720  27.312   3.964
 1942CHOL    R523160  10.849  27.489   3.666
 1942CHOL    R623161  10.706  27.544   4.108
 1942CHOL    C123162  10.577  27.362   4.387
 1942CHOL    C223163  10.607  27.530   4.795
 1943CHOL   ROH23164   3.959  27.379   6.742
 1943CHOL    R123165   4.048  27.561   6.362
 1943CHOL    R223166   4.212  27.297   6.517
 1943CHOL    R323167   4.279  27.495   6.008
 1943CHOL    R423168   4.336  27.219   6.244
 1943CHOL    R523169   4.004  27.206   6.407
 1943CHOL    R623170   4.224  27.224   5.995
 1943CHOL    C123171   4.550  27.242   5.849
 1943CHOL    C223172   4.466  27.235   5.390
 1944CHOL   ROH23173  27.922  24.224   6.776
 1944CHOL    R123174  27.635  24.249   6.455
 1944CHOL    R223175  27.982  24.237   6.433
 1944CHOL    R323176  27.607  24.208   6.030
 1944CHOL    R423177  27.956  24.153   6.136
 1944CHOL    R523178  27.898  24.002   6.469
 1944CHOL    R623179  27.774  23.987   6.018
 1944CHOL    C123180  27.835  24.145   5.703
 1944CHOL    C223181  27.657  24.063   5.307
 1945CHOL   ROH23182   5.685  32.497   6.961
 1945CHOL    R123183   5.921  32.673   6.646
 1945CHOL    R223184   5.651  32.456   6.616
 1945CHOL    R323185   5.919  32.731   6.222
 1945CHOL    R423186   5.618  32.543   6.321
 1945CHOL    R523187   5.561  32.688   6.656
 1945CHOL    R623188   5.648  32.790   6.209
 1945CHOL    C123189   5.708  32.637   5.891
 1945CHOL    C223190   5.899  32.684   5.521
 1946CHOL   ROH23191  29.406  29.918   5.016
 1946CHOL    R123192  29.724  29.669   5.168
 1946CHOL    R223193  29.572  29.656   4.855
 1946CHOL    R323194  30.015  29.385   5.036
 1946CHOL    R423195  29.814  29.495   4.748
 1946CHOL    R523196  29.741  29.843   4.852
 1946CHOL    R623197  30.079  29.524   4.805
 1946CHOL    C123198  30.136  29.185   4.707
 1946CHOL    C223199  30.406  28.857   4.845
 1947CHOL   ROH23200  30.470  10.528   6.856
 1947CHOL    R123201  30.188  10.551   6.530
 1947CHOL    R223202  30.533  10.600   6.520
 1947CHOL    R323203  30.175  10.568   6.103
 1947CHOL    R423204  30.526  10.556   6.214
 1947CHOL    R523205  30.489  10.351   6.520
 1947CHOL    R623206  30.376  10.381   6.067
 1947CHOL    C123207  30.414  10.591   5.780
 1947CHOL    C223208  30.328  10.479   5.336
 1948CHOL   ROH23209  16.592  21.809   7.293
 1948CHOL    R123210  16.458  21.840   6.884
 1948CHOL    R223211  16.774  21.906   7.013
 1948CHOL    R323212  16.611  21.885   6.487
 1948CHOL    R423213  16.891  21.883   6.727
 1948CHOL    R523214  16.752  21.657   6.984
 1948CHOL    R623215  16.824  21.711   6.526
 1948CHOL    C123216  16.956  21.942   6.286
 1948CHOL    C223217  17.156  22.015   5.898
 1949CHOL   ROH23218  24.239  18.995   4.070
 1949CHOL    R123219  24.301  19.286   4.382
 1949CHOL    R223220  24.037  19.062   4.346
 1949CHOL    R323221  24.155  19.393   4.769
 1949CHOL    R423222  23.967  19.102   4.645
 1949CHOL    R523223  24.232  18.937   4.445
 1949CHOL    R623224  24.135  19.132   4.859
 1949CHOL    C123225  23.873  19.295   5.040
 1949CHOL    C223226  23.742  19.437   5.438
 1950CHOL   ROH23227   3.797  26.569   7.112
 1950CHOL    R123228   3.654  26.546   6.706
 1950CHOL    R223229   3.983  26.534   6.819
 1950CHOL    R323230   3.787  26.446   6.312
 1950CHOL    R423231   4.067  26.409   6.548
 1950CHOL    R523232   3.881  26.306   6.851
 1950CHOL    R623233   3.935  26.226   6.393
 1950CHOL    C123234   4.117  26.339   6.107
 1950CHOL    C223235   4.151  26.101   5.720
 1951CHOL   ROH23236   4.780  15.374   7.453
 1951CHOL    R123237   4.524  15.079   7.269
 1951CHOL    R223238   4.638  15.379   7.135
 1951CHOL    R323239   4.364  14.970   6.888
 1951CHOL    R423240   4.569  15.274   6.851
 1951CHOL    R523241   4.823  15.209   7.113
 1951CHOL    R623242   4.598  15.022   6.749
 1951CHOL    C123243   4.347  15.095   6.504
 1951CHOL    C223244   4.101  14.923   6.184
 1952CHOL   ROH23245   8.884  23.386   5.988
 1952CHOL    R123246   9.161  23.253   5.685
 1952CHOL    R223247   8.814  23.262   5.670
 1952CHOL    R323248   9.176  23.152   5.270
 1952CHOL    R423249   8.831  23.243   5.361
 1952CHOL    R523250   8.900  23.494   5.624
 1952CHOL    R623251   9.010  23.359   5.190
 1952CHOL    C123252   8.940  23.107   4.947
 1952CHOL    C223253   9.057  22.775   4.667
 1953CHOL   ROH23254  15.375  17.641   4.539
 1953CHOL    R123255  15.344  18.043   4.692
 1953CHOL    R223256  15.236  17.747   4.841
 1953CHOL    R323257  15.256  18.255   5.054
 1953CHOL    R423258  15.226  17.893   5.114
 1953CHOL    R523259  15.485  17.768   4.880
 1953CHOL    R623260  15.396  18.080   5.217
 1953CHOL    C123261  15.137  18.195   5.434
 1953CHOL    C223262  15.084  18.517   5.751
 1954CHOL   ROH23263  35.004  26.890   3.783
 1954CHOL    R123264  35.260  26.694   4.070
 1954CHOL    R223265  35.119  27.012   4.089
 1954CHOL    R323266  35.395  26.731   4.474
 1954CHOL    R423267  35.170  27.012   4.394
 1954CHOL    R523268  34.943  26.844   4.155
 1954CHOL    R623269  35.148  26.807   4.573
 1954CHOL    C123270  35.374  26.976   4.793
 1954CHOL    C223271  35.619  27.085   5.142
 1955CHOL   ROH23272   5.942  30.527   3.705
 1955CHOL    R123273   6.174  30.623   4.055
 1955CHOL    R223274   5.829  30.640   4.015
 1955CHOL    R323275   6.128  30.701   4.473
 1955CHOL    R423276   5.797  30.641   4.323
 1955CHOL    R523277   5.891  30.399   4.059
 1955CHOL    R623278   5.938  30.504   4.512
 1955CHOL    C123279   5.845  30.747   4.757
 1955CHOL    C223280   5.974  30.628   5.178
 1956CHOL   ROH23281  17.507  30.349   5.301
 1956CHOL    R123282  17.661  30.613   5.606
 1956CHOL    R223283  17.477  30.320   5.648
 1956CHOL    R323284  17.728  30.629   6.028
 1956CHOL    R423285  17.574  30.306   5.942
 1956CHOL    R523286  17.717  30.256   5.604
 1956CHOL    R623287  17.818  30.367   6.047
 1956CHOL    C123288  17.667  30.418   6.367
 1956CHOL    C223289  17.771  30.653   6.722
 1957CHOL   ROH23290   7.334  32.973   3.545
 1957CHOL    R123291   7.485  32.899   3.942
 1957CHOL    R223292   7.173  33.024   3.850
 1957CHOL    R323293   7.352  32.870   4.347
 1957CHOL    R423294   7.065  32.950   4.131
 1957CHOL    R523295   7.169  32.773   3.822
 1957CHOL    R623296   7.121  32.731   4.285
 1957CHOL    C123297   7.024  32.914   4.577
 1957CHOL    C223298   7.082  33.001   4.996
 1958CHOL   ROH23299  14.748   3.477   6.963
 1958CHOL    R123300  14.721   3.271   6.585
 1958CHOL    R223301  14.767   3.612   6.642
 1958CHOL    R323302  14.792   3.333   6.168
 1958CHOL    R423303  14.871   3.642   6.351
 1958CHOL    R523304  14.990   3.497   6.671
 1958CHOL    R623305  15.028   3.473   6.205
 1958CHOL    C123306  14.901   3.617   5.904
 1958CHOL    C223307  15.075   3.408   5.548
 1959CHOL   ROH23308  29.901  16.131   6.927
 1959CHOL    R123309  29.906  15.851   6.599
 1959CHOL    R223310  29.833  16.191   6.591
 1959CHOL    R323311  29.900  15.840   6.172
 1959CHOL    R423312  29.884  16.190   6.285
 1959CHOL    R523313  30.084  16.165   6.596
 1959CHOL    R623314  30.073  16.054   6.142
 1959CHOL    C123315  29.868  16.080   5.850
 1959CHOL    C223316  29.771  16.027   5.413
 1960CHOL   ROH23317   1.832  14.083   4.824
 1960CHOL    R123318   1.520  14.180   5.105
 1960CHOL    R223319   1.828  14.031   5.168
 1960CHOL    R323320   1.452  14.214   5.526
 1960CHOL    R423321   1.799  14.107   5.468
 1960CHOL    R523322   1.865  14.280   5.147
 1960CHOL    R623323   1.695  14.333   5.579
 1960CHOL    C123324   1.632  14.154   5.882
 1960CHOL    C223325   1.547  13.910   6.236
 1961CHOL   ROH23326  33.702  15.980   7.710
 1961CHOL    R123327  33.521  16.191   7.380
 1961CHOL    R223328  33.855  16.104   7.422
 1961CHOL    R323329  33.605  16.318   6.981
 1961CHOL    R423330  33.900  16.145   7.118
 1961CHOL    R523331  33.731  15.901   7.339
 1961CHOL    R623332  33.735  16.084   6.909
 1961CHOL    C123333  33.901  16.328   6.707
 1961CHOL    C223334  33.882  16.735   6.546
 1962CHOL   ROH23335  15.627  14.638   6.813
 1962CHOL    R123336  15.826  14.811   6.471
 1962CHOL    R223337  15.526  14.635   6.479
 1962CHOL    R323338  15.755  14.911   6.062
 1962CHOL    R423339  15.453  14.754   6.203
 1962CHOL    R523340  15.479  14.872   6.553
 1962CHOL    R623341  15.498  15.005   6.105
 1962CHOL    C123342  15.476  14.878   5.771
 1962CHOL    C223343  15.570  15.017   5.387
 1963CHOL   ROH23344  31.012  32.323   6.702
 1963CHOL    R123345  30.776  32.184   6.369
 1963CHOL    R223346  31.067  32.376   6.362
 1963CHOL    R323347  30.795  32.144   5.944
 1963CHOL    R423348  31.106  32.298   6.064
 1963CHOL    R523349  31.133  32.134   6.395
 1963CHOL    R623350  31.058  32.060   5.940
 1963CHOL    C123351  31.029  32.231   5.627
 1963CHOL    C223352  31.030  32.066   5.210
 1964CHOL   ROH23353   7.280  10.034   6.551
 1964CHOL    R123354   7.179   9.954   6.139
 1964CHOL    R223355   7.451  10.133   6.263
 1964CHOL    R323356   7.348   9.974   5.747
 1964CHOL    R423357   7.594  10.097   5.991
 1964CHOL    R523358   7.504   9.887   6.282
 1964CHOL    R623359   7.597   9.882   5.824
 1964CHOL    C123360   7.678  10.096   5.549
 1964CHOL    C223361   7.800  10.102   5.136
 1965CHOL   ROH23362  25.876  31.148   4.553
 1965CHOL    R123363  25.646  31.117   4.189
 1965CHOL    R223364  25.894  30.902   4.306
 1965CHOL    R323365  25.555  30.839   3.877
 1965CHOL    R423366  25.788  30.682   4.115
 1965CHOL    R523367  25.679  30.848   4.427
 1965CHOL    R623368  25.531  30.621   4.046
 1965CHOL    C123369  25.648  30.469   3.744
 1965CHOL    C223370  25.538  30.290   3.370
 1966CHOL   ROH23371  29.708  18.254   3.558
 1966CHOL    R123372  29.699  17.972   3.884
 1966CHOL    R223373  29.661  18.317   3.898
 1966CHOL    R323374  29.590  17.945   4.297
 1966CHOL    R423375  29.531  18.288   4.178
 1966CHOL    R523376  29.441  18.218   3.826
 1966CHOL    R623377  29.360  18.096   4.270
 1966CHOL    C123378  29.460  18.170   4.605
 1966CHOL    C223379  29.520  17.993   5.017
 1967CHOL   ROH23380  22.148  20.753   6.961
 1967CHOL    R123381  22.001  20.607   6.583
 1967CHOL    R223382  21.849  20.832   6.800
 1967CHOL    R323383  21.698  20.687   6.291
 1967CHOL    R423384  21.666  20.927   6.569
 1967CHOL    R523385  22.022  20.958   6.666
 1967CHOL    R623386  21.726  20.962   6.305
 1967CHOL    C123387  21.380  20.925   6.222
 1967CHOL    C223388  21.054  20.858   5.907
 1968CHOL   ROH23389  10.958  21.028   5.964
 1968CHOL    R123390  10.682  20.752   5.782
 1968CHOL    R223391  10.927  20.944   5.627
 1968CHOL    R323392  10.612  20.545   5.413
 1968CHOL    R423393  10.912  20.757   5.380
 1968CHOL    R523394  11.038  20.741   5.728
 1968CHOL    R623395  10.879  20.486   5.370
 1968CHOL    C123396  10.753  20.514   5.037
 1968CHOL    C223397  10.593  20.154   4.870
 1969CHOL   ROH23398   3.153  14.393   4.725
 1969CHOL    R123399   3.082  14.794   4.866
 1969CHOL    R223400   3.031  14.495   5.035
 1969CHOL    R323401   3.003  15.010   5.226
 1969CHOL    R423402   3.029  14.651   5.303
 1969CHOL    R523403   3.277  14.550   5.048
 1969CHOL    R623404   3.181  14.864   5.380
 1969CHOL    C123405   2.930  14.955   5.619
 1969CHOL    C223406   2.766  15.245   5.937
 1970CHOL   ROH23407  16.179  17.425   4.504
 1970CHOL    R123408  16.267  17.242   4.884
 1970CHOL    R223409  16.458  17.474   4.708
 1970CHOL    R323410  16.532  17.282   5.219
 1970CHOL    R423411  16.612  17.540   4.968
 1970CHOL    R523412  16.275  17.599   4.828
 1970CHOL    R623413  16.520  17.559   5.224
 1970CHOL    C123414  16.849  17.495   5.347
 1970CHOL    C223415  17.208  17.392   5.614
 1971CHOL   ROH23416  25.952   4.284   4.076
 1971CHOL    R123417  25.877   4.498   4.443
 1971CHOL    R223418  25.997   4.174   4.404
 1971CHOL    R323419  25.956   4.476   4.862
 1971CHOL    R423420  26.102   4.182   4.695
 1971CHOL    R523421  26.189   4.333   4.368
 1971CHOL    R623422  26.217   4.389   4.832
 1971CHOL    C123423  26.122   4.236   5.141
 1971CHOL    C223424  26.133   4.384   5.549
 1972CHOL   ROH23425  16.290  35.160   3.422
 1972CHOL    R123426  16.184  35.145   3.839
 1972CHOL    R223427  16.415  34.949   3.669
 1972CHOL    R323428  16.317  34.979   4.210
 1972CHOL    R423429  16.544  34.873   3.941
 1972CHOL    R523430  16.524  35.170   3.721
 1972CHOL    R623431  16.585  35.027   4.162
 1972CHOL    C123432  16.596  34.733   4.364
 1972CHOL    C223433  16.455  34.515   4.722
 1973CHOL   ROH23434   5.000   2.262   6.997
 1973CHOL    R123435   4.808   2.427   6.647
 1973CHOL    R223436   5.091   2.225   6.662
 1973CHOL    R323437   4.805   2.388   6.221
 1973CHOL    R423438   5.052   2.155   6.363
 1973CHOL    R523439   4.888   2.077   6.685
 1973CHOL    R623440   4.821   2.112   6.223
 1973CHOL    C123441   4.990   2.196   5.919
 1973CHOL    C223442   4.902   2.324   5.528
 1974CHOL   ROH23443  23.482  31.609   6.766
 1974CHOL    R123444  23.217  31.859   6.534
 1974CHOL    R223445  23.429  31.607   6.421
 1974CHOL    R323446  23.045  31.888   6.144
 1974CHOL    R423447  23.265  31.594   6.158
 1974CHOL    R523448  23.221  31.499   6.513
 1974CHOL    R623449  22.996  31.617   6.120
 1974CHOL    C123450  23.053  31.714   5.781
 1974CHOL    C223451  22.760  31.816   5.466
 1975CHOL   ROH23452   4.459   7.120   6.576
 1975CHOL    R123453   4.321   7.356   6.243
 1975CHOL    R223454   4.453   7.034   6.238
 1975CHOL    R323455   4.220   7.319   5.829
 1975CHOL    R423456   4.329   6.992   5.957
 1975CHOL    R523457   4.211   7.018   6.307
 1975CHOL    R623458   4.089   7.077   5.859
 1975CHOL    C123459   4.217   7.052   5.526
 1975CHOL    C223460   4.219   7.200   5.121
 1976CHOL   ROH23461   6.384   3.475   6.870
 1976CHOL    R123462   6.474   3.720   6.526
 1976CHOL    R223463   6.317   3.409   6.534
 1976CHOL    R323464   6.382   3.755   6.110
 1976CHOL    R423465   6.206   3.463   6.250
 1976CHOL    R523466   6.146   3.585   6.594
 1976CHOL    R623467   6.113   3.695   6.141
 1976CHOL    C123468   6.181   3.569   5.814
 1976CHOL    C223469   6.279   3.467   5.397
 1977CHOL   ROH23470  26.242  15.574   4.016
 1977CHOL    R123471  26.069  15.781   4.353
 1977CHOL    R223472  26.304  15.523   4.356
 1977CHOL    R323473  26.124  15.833   4.774
 1977CHOL    R423474  26.379  15.601   4.646
 1977CHOL    R523475  26.425  15.739   4.306
 1977CHOL    R623476  26.400  15.848   4.760
 1977CHOL    C123477  26.349  15.704   5.083
 1977CHOL    C223478  26.389  15.945   5.420
 1978CHOL   ROH23479  25.983  28.717   3.442
 1978CHOL    R123480  26.159  28.826   3.820
 1978CHOL    R223481  25.822  28.811   3.736
 1978CHOL    R323482  26.053  28.889   4.230
 1978CHOL    R423483  25.751  28.802   4.038
 1978CHOL    R523484  25.900  28.576   3.785
 1978CHOL    R623485  25.880  28.673   4.242
 1978CHOL    C123486  25.733  28.901   4.476
 1978CHOL    C223487  25.851  28.824   4.898
 1979CHOL   ROH23488   1.021   8.896   7.328
 1979CHOL    R123489   1.399   9.007   7.154
 1979CHOL    R223490   1.117   8.882   6.993
 1979CHOL    R323491   1.580   9.083   6.774
 1979CHOL    R423492   1.228   8.988   6.724
 1979CHOL    R523493   1.081   9.128   7.034
 1979CHOL    R623494   1.363   9.220   6.672
 1979CHOL    C123495   1.503   9.072   6.379
 1979CHOL    C223496   1.735   9.126   6.025
 1980CHOL   ROH23497   4.427  18.110   6.869
 1980CHOL    R123498   4.462  17.768   6.608
 1980CHOL    R223499   4.443  18.105   6.521
 1980CHOL    R323500   4.549  17.669   6.201
 1980CHOL    R423501   4.559  18.035   6.242
 1980CHOL    R523502   4.681  18.055   6.591
 1980CHOL    R623503   4.753  17.854   6.175
 1980CHOL    C123504   4.623  17.839   5.843
 1980CHOL    C223505   4.868  17.638   5.535
 1981CHOL   ROH23506  23.330  17.662   5.082
 1981CHOL    R123507  22.913  17.557   5.053
 1981CHOL    R223508  23.080  17.702   5.322
 1981CHOL    R323509  22.540  17.620   5.253
 1981CHOL    R423510  22.807  17.794   5.436
 1981CHOL    R523511  23.030  17.883   5.154
 1981CHOL    R623512  22.587  17.888   5.304
 1981CHOL    C123513  22.382  17.792   5.581
 1981CHOL    C223514  22.035  17.741   5.844
 1982CHOL   ROH23515  10.292  17.568   5.566
 1982CHOL    R123516   9.941  17.688   5.346
 1982CHOL    R223517  10.267  17.655   5.229
 1982CHOL    R323518   9.805  17.747   4.944
 1982CHOL    R423519  10.158  17.643   4.939
 1982CHOL    R523520  10.164  17.425   5.238
 1982CHOL    R623521   9.933  17.523   4.844
 1982CHOL    C123522   9.935  17.744   4.563
 1982CHOL    C223523   9.761  17.699   4.146
 1983CHOL   ROH23524   9.865  29.961   3.655
 1983CHOL    R123525  10.094  30.162   3.960
 1983CHOL    R223526   9.753  30.090   3.959
 1983CHOL    R323527  10.064  30.290   4.367
 1983CHOL    R423528   9.748  30.131   4.266
 1983CHOL    R523529   9.877  29.881   4.026
 1983CHOL    R623530   9.934  30.062   4.453
 1983CHOL    C123531   9.804  30.311   4.674
 1983CHOL    C223532   9.988  30.476   5.057
 1984CHOL   ROH23533   8.610  23.917   6.517
 1984CHOL    R123534   8.336  23.890   6.185
 1984CHOL    R223535   8.684  23.879   6.178
 1984CHOL    R323536   8.326  23.784   5.771
 1984CHOL    R423537   8.670  23.750   5.896
 1984CHOL    R523538   8.600  23.651   6.246
 1984CHOL    R623539   8.494  23.566   5.799
 1984CHOL    C123540   8.566  23.675   5.466
 1984CHOL    C223541   8.547  23.637   5.035
 1985CHOL   ROH23542  21.212  35.973   3.650
 1985CHOL    R123543  21.124  36.268   3.952
 1985CHOL    R223544  21.223  35.938   3.997
 1985CHOL    R323545  21.168  36.338   4.371
 1985CHOL    R423546  21.306  36.007   4.288
 1985CHOL    R523547  21.429  36.075   3.945
 1985CHOL    R623548  21.424  36.233   4.385
 1985CHOL    C123549  21.294  36.160   4.710
 1985CHOL    C223550  21.237  36.251   5.139
 1986CHOL   ROH23551  11.222  31.435   3.411
 1986CHOL    R123552  11.112  31.130   3.695
 1986CHOL    R223553  11.234  31.449   3.759
 1986CHOL    R323554  11.034  31.077   4.112
 1986CHOL    R423555  11.127  31.427   4.049
 1986CHOL    R523556  10.988  31.469   3.709
 1986CHOL    R623557  10.895  31.314   4.140
 1986CHOL    C123558  11.043  31.275   4.463
 1986CHOL    C223559  11.071  31.152   4.863
 1987CHOL   ROH23560  17.991  27.655   4.216
 1987CHOL    R123561  17.594  27.673   4.384
 1987CHOL    R223562  17.900  27.699   4.550
 1987CHOL    R323563  17.392  27.781   4.745
 1987CHOL    R423564  17.754  27.829   4.790
 1987CHOL    R523565  17.848  27.923   4.445
 1987CHOL    R623566  17.546  28.006   4.792
 1987CHOL    C123567  17.461  27.903   5.123
 1987CHOL    C223568  17.231  27.865   5.488
 1988CHOL   ROH23569  24.266  25.353   4.105
 1988CHOL    R123570  24.354  25.378   4.526
 1988CHOL    R223571  24.467  25.585   4.271
 1988CHOL    R323572  24.523  25.644   4.815
 1988CHOL    R423573  24.539  25.800   4.482
 1988CHOL    R523574  24.233  25.656   4.331
 1988CHOL    R623575  24.405  25.871   4.710
 1988CHOL    C123576  24.708  26.001   4.847
 1988CHOL    C223577  24.805  26.216   5.219
 1989CHOL   ROH23578  36.004  33.307   6.961
 1989CHOL    R123579  36.104  33.402   6.553
 1989CHOL    R223580  35.962  33.110   6.676
 1989CHOL    R323581  36.037  33.264   6.153
 1989CHOL    R423582  35.867  33.039   6.390
 1989CHOL    R523583  35.779  33.282   6.655
 1989CHOL    R623584  35.770  33.204   6.195
 1989CHOL    C123585  35.864  32.963   5.947
 1989CHOL    C223586  35.972  33.008   5.548
 1990CHOL   ROH23587  30.702  11.386   4.562
 1990CHOL    R123588  31.002  11.145   4.757
 1990CHOL    R223589  30.890  11.462   4.846
 1990CHOL    R323590  31.225  11.123   5.121
 1990CHOL    R423591  31.007  11.420   5.129
 1990CHOL    R523592  30.722  11.294   4.930
 1990CHOL    R623593  31.012  11.194   5.283
 1990CHOL    C123594  31.292  11.325   5.464
 1990CHOL    C223595  31.556  11.183   5.768
 1991CHOL   ROH23596   4.719  34.257   3.812
 1991CHOL    R123597   4.497  34.155   4.168
 1991CHOL    R223598   4.842  34.180   4.130
 1991CHOL    R323599   4.548  34.110   4.590
 1991CHOL    R423600   4.870  34.202   4.437
 1991CHOL    R523601   4.749  34.413   4.158
 1991CHOL    R623602   4.711  34.333   4.617
 1991CHOL    C123603   4.831  34.119   4.877
 1991CHOL    C223604   4.837  33.713   5.066
 1992CHOL   ROH23605  33.118   8.776   6.725
 1992CHOL    R123606  33.107   8.411   6.497
 1992CHOL    R223607  33.071   8.737   6.382
 1992CHOL    R323608  33.119   8.271   6.093
 1992CHOL    R423609  33.135   8.639   6.095
 1992CHOL    R523610  33.318   8.692   6.413
 1992CHOL    R623611  33.315   8.450   6.013
 1992CHOL    C123612  33.127   8.404   5.712
 1992CHOL    C223613  33.230   8.176   5.348
 1993CHOL   ROH23614  24.944   9.615   3.986
 1993CHOL    R123615  24.661   9.495   4.288
 1993CHOL    R223616  25.008   9.509   4.312
 1993CHOL    R323617  24.636   9.416   4.708
 1993CHOL    R423618  24.982   9.506   4.621
 1993CHOL    R523619  24.918   9.743   4.343
 1993CHOL    R623620  24.798   9.629   4.780
 1993CHOL    C123621  24.864   9.391   5.039
 1993CHOL    C223622  24.854   9.457   5.495
 1994CHOL   ROH23623   2.898  27.943   3.905
 1994CHOL    R123624   2.775  27.759   4.275
 1994CHOL    R223625   3.002  28.019   4.229
 1994CHOL    R323626   2.793  27.819   4.698
 1994CHOL    R423627   2.970  28.093   4.529
 1994CHOL    R523628   2.769  28.116   4.219
 1994CHOL    R623629   2.746  28.091   4.685
 1994CHOL    C123630   2.951  28.064   4.977
 1994CHOL    C223631   2.779  28.103   5.388
 1995CHOL   ROH23632  21.707  18.428   4.805
 1995CHOL    R123633  21.682  18.165   5.146
 1995CHOL    R223634  21.794  18.494   5.137
 1995CHOL    R323635  21.702  18.172   5.573
 1995CHOL    R423636  21.754  18.512   5.444
 1995CHOL    R523637  21.542  18.497   5.141
 1995CHOL    R623638  21.556  18.406   5.599
 1995CHOL    C123639  21.773  18.420   5.883
 1995CHOL    C223640  21.873  18.239   6.265
 1996CHOL   ROH23641  34.751  17.725   4.349
 1996CHOL    R123642  34.726  17.747   4.779
 1996CHOL    R223643  34.516  17.894   4.543
 1996CHOL    R323644  34.457  17.865   5.090
 1996CHOL    R423645  34.300  17.928   4.763
 1996CHOL    R523646  34.449  17.651   4.567
 1996CHOL    R623647  34.232  17.760   4.967
 1996CHOL    C123648  34.096  18.037   5.149
 1996CHOL    C223649  33.919  18.169   5.506
 1997CHOL   ROH23650  12.526   3.314   6.935
 1997CHOL    R123651  12.322   3.391   6.563
 1997CHOL    R223652  12.658   3.442   6.638
 1997CHOL    R323653  12.403   3.480   6.152
 1997CHOL    R423654  12.721   3.452   6.335
 1997CHOL    R523655  12.626   3.197   6.587
 1997CHOL    R623656  12.615   3.304   6.132
 1997CHOL    C123657  12.706   3.559   5.899
 1997CHOL    C223658  12.549   3.777   5.546
 1998CHOL   ROH23659  12.473  31.084   7.059
 1998CHOL    R123660  12.422  31.396   6.765
 1998CHOL    R223661  12.653  31.135   6.765
 1998CHOL    R323662  12.541  31.500   6.367
 1998CHOL    R423663  12.696  31.179   6.461
 1998CHOL    R523664  12.432  31.044   6.683
 1998CHOL    R623665  12.514  31.243   6.268
 1998CHOL    C123666  12.777  31.375   6.065
 1998CHOL    C223667  12.972  31.612   5.739
 1999CHOL   ROH23668  20.438  19.827   7.253
 1999CHOL    R123669  20.702  19.624   6.978
 1999CHOL    R223670  20.370  19.717   6.929
 1999CHOL    R323671  20.730  19.514   6.565
 1999CHOL    R423672  20.411  19.688   6.623
 1999CHOL    R523673  20.514  19.921   6.892
 1999CHOL    R623674  20.628  19.753   6.471
 1999CHOL    C123675  20.521  19.522   6.221
 1999CHOL    C223676  20.527  19.259   5.878
 2000CHOL   ROH23677  14.970   5.450   3.970
 2000CHOL    R123678  15.153   5.578   4.339
 2000CHOL    R223679  14.914   5.329   4.292
 2000CHOL    R323680  15.197   5.457   4.747
 2000CHOL    R423681  14.988   5.211   4.569
 2000CHOL    R523682  15.140   5.233   4.232
 2000CHOL    R623683  15.233   5.189   4.688
 2000CHOL    C123684  15.075   5.175   5.008
 2000CHOL    C223685  15.242   5.137   5.398
 2001CHOL   ROH23686   5.896  10.710   7.044
 2001CHOL    R123687   5.517  10.520   6.965
 2001CHOL    R223688   5.746  10.644   6.735
 2001CHOL    R323689   5.292  10.347   6.644
 2001CHOL    R423690   5.612  10.474   6.514
 2001CHOL    R523691   5.827  10.417   6.811
 2001CHOL    R623692   5.510  10.221   6.529
 2001CHOL    C123693   5.303  10.290   6.245
 2001CHOL    C223694   5.140   9.940   6.035
 2002CHOL   ROH23695  29.164   3.702   7.127
 2002CHOL    R123696  29.267   3.496   6.762
 2002CHOL    R223697  29.083   3.789   6.799
 2002CHOL    R323698  29.269   3.553   6.338
 2002CHOL    R423699  29.134   3.855   6.501
 2002CHOL    R523700  29.327   3.848   6.816
 2002CHOL    R623701  29.359   3.815   6.351
 2002CHOL    C123702  29.160   3.818   6.054
 2002CHOL    C223703  29.205   3.732   5.622
 2003CHOL   ROH23704   3.993   0.321   3.914
 2003CHOL    R123705   3.786   0.474   4.261
 2003CHOL    R223706   4.084   0.294   4.250
 2003CHOL    R323707   3.846   0.545   4.678
 2003CHOL    R423708   4.150   0.394   4.536
 2003CHOL    R523709   4.136   0.535   4.194
 2003CHOL    R623710   4.105   0.638   4.648
 2003CHOL    C123711   4.115   0.490   4.973
 2003CHOL    C223712   3.966   0.405   5.401
 2004CHOL   ROH23713  13.444  25.807   3.413
 2004CHOL    R123714  13.202  25.757   3.767
 2004CHOL    R223715  13.548  25.795   3.745
 2004CHOL    R323716  13.226  25.791   4.192
 2004CHOL    R423717  13.553  25.874   4.045
 2004CHOL    R523718  13.442  26.023   3.725
 2004CHOL    R623719  13.376  26.024   4.188
 2004CHOL    C123720  13.488  25.868   4.490
 2004CHOL    C223721  13.288  26.000   4.838
 2005CHOL   ROH23722  13.496  23.365   6.868
 2005CHOL    R123723  13.873  23.291   6.671
 2005CHOL    R223724  13.559  23.165   6.589
 2005CHOL    R323725  14.032  23.125   6.311
 2005CHOL    R423726  13.665  23.096   6.306
 2005CHOL    R523727  13.576  23.400   6.498
 2005CHOL    R623728  13.838  23.235   6.147
 2005CHOL    C123729  13.921  22.934   5.974
 2005CHOL    C223730  14.095  22.843   5.575
 2006CHOL   ROH23731  29.611  26.623   6.922
 2006CHOL    R123732  29.384  26.465   6.591
 2006CHOL    R223733  29.652  26.687   6.582
 2006CHOL    R323734  29.397  26.433   6.165
 2006CHOL    R423735  29.693  26.619   6.282
 2006CHOL    R523736  29.745  26.454   6.609
 2006CHOL    R623737  29.669  26.379   6.154
 2006CHOL    C123738  29.614  26.551   5.845
 2006CHOL    C223739  29.457  26.569   5.428
 2007CHOL   ROH23740  26.231  16.989   3.895
 2007CHOL    R123741  25.996  17.046   4.253
 2007CHOL    R223742  26.331  16.954   4.228
 2007CHOL    R323743  26.040  17.088   4.676
 2007CHOL    R423744  26.371  17.039   4.523
 2007CHOL    R523745  26.315  17.204   4.197
 2007CHOL    R623746  26.264  17.250   4.659
 2007CHOL    C123747  26.318  17.077   4.968
 2007CHOL    C223748  26.270  17.323   5.354
 2008CHOL   ROH23749   2.884  17.419   6.743
 2008CHOL    R123750   2.851  17.271   6.339
 2008CHOL    R223751   3.001  17.565   6.449
 2008CHOL    R323752   3.008  17.338   5.947
 2008CHOL    R423753   3.156  17.581   6.181
 2008CHOL    R523754   3.163  17.375   6.489
 2008CHOL    R623755   3.267  17.380   6.033
 2008CHOL    C123756   3.250  17.586   5.742
 2008CHOL    C223757   3.347  17.632   5.305
 2009CHOL   ROH23758  25.429  17.385   4.086
 2009CHOL    R123759  25.467  17.349   4.514
 2009CHOL    R223760  25.499  17.635   4.319
 2009CHOL    R323761  25.486  17.589   4.867
 2009CHOL    R423762  25.458  17.808   4.573
 2009CHOL    R523763  25.253  17.591   4.353
 2009CHOL    R623764  25.290  17.767   4.784
 2009CHOL    C123765  25.499  17.973   4.988
 2009CHOL    C223766  25.571  18.078   5.399
 2010CHOL   ROH23767   6.842   2.486   3.708
 2010CHOL    R123768   7.127   2.673   3.973
 2010CHOL    R223769   6.823   2.524   4.054
 2010CHOL    R323770   7.218   2.709   4.389
 2010CHOL    R423771   6.917   2.502   4.348
 2010CHOL    R523772   6.994   2.341   4.024
 2010CHOL    R623773   7.165   2.444   4.447
 2010CHOL    C123774   7.080   2.608   4.754
 2010CHOL    C223775   7.009   3.004   4.854
 2011CHOL   ROH23776   3.454  31.104   7.321
 2011CHOL    R123777   3.558  31.256   6.931
 2011CHOL    R223778   3.316  31.020   7.012
 2011CHOL    R323779   3.414  31.264   6.529
 2011CHOL    R423780   3.182  31.069   6.737
 2011CHOL    R523781   3.221  31.249   7.059
 2011CHOL    R623782   3.150  31.303   6.600
 2011CHOL    C123783   3.119  31.119   6.295
 2011CHOL    C223784   3.116  31.325   5.912
 2012CHOL   ROH23785   2.611   8.750   4.314
 2012CHOL    R123786   2.961   8.791   4.564
 2012CHOL    R223787   2.644   8.678   4.654
 2012CHOL    R323788   3.110   8.676   4.948
 2012CHOL    R423789   2.767   8.547   4.907
 2012CHOL    R523790   2.766   8.487   4.541
 2012CHOL    R623791   3.006   8.419   4.936
 2012CHOL    C123792   2.999   8.489   5.287
 2012CHOL    C223793   3.360   8.515   5.536
 2013CHOL   ROH23794  35.787  22.333   4.101
 2013CHOL    R123795  35.813  21.986   4.356
 2013CHOL    R223796  35.822  22.322   4.447
 2013CHOL    R323797  35.794  21.876   4.769
 2013CHOL    R423798  35.753  22.241   4.738
 2013CHOL    R523799  35.581  22.257   4.411
 2013CHOL    R623800  35.584  22.046   4.828
 2013CHOL    C123801  35.762  22.036   5.138
 2013CHOL    C223802  35.697  21.910   5.562
 2014CHOL   ROH23803   5.654   0.200   3.650
 2014CHOL    R123804   5.810   0.038   4.018
 2014CHOL    R223805   5.576   0.293   3.977
 2014CHOL    R323806   5.735   0.040   4.439
 2014CHOL    R423807   5.487   0.253   4.271
 2014CHOL    R523808   5.457   0.073   3.949
 2014CHOL    R623809   5.460   0.022   4.414
 2014CHOL    C123810   5.496   0.206   4.718
 2014CHOL    C223811   5.529   0.244   5.149
 2015CHOL   ROH23812  30.514  27.318   3.845
 2015CHOL    R123813  30.245  27.133   4.128
 2015CHOL    R223814  30.578  27.222   4.175
 2015CHOL    R323815  30.212  27.044   4.545
 2015CHOL    R423816  30.535  27.210   4.481
 2015CHOL    R523817  30.438  27.430   4.200
 2015CHOL    R623818  30.318  27.286   4.628
 2015CHOL    C123819  30.419  27.065   4.890
 2015CHOL    C223820  30.308  26.842   5.273
 2016CHOL   ROH23821  29.691  18.470   6.972
 2016CHOL    R123822  29.563  18.188   6.672
 2016CHOL    R223823  29.742  18.483   6.627
 2016CHOL    R323824  29.628  18.087   6.261
 2016CHOL    R423825  29.832  18.381   6.348
 2016CHOL    R523826  29.903  18.304   6.704
 2016CHOL    R623827  29.901  18.129   6.270
 2016CHOL    C123828  29.824  18.213   5.932
 2016CHOL    C223829  29.744  18.054   5.537
 2017CHOL   ROH23830  23.312  18.194   7.567
 2017CHOL    R123831  23.352  18.354   7.168
 2017CHOL    R223832  23.408  18.028   7.276
 2017CHOL    R323833  23.396  18.225   6.763
 2017CHOL    R423834  23.385  17.931   6.983
 2017CHOL    R523835  23.159  18.058   7.247
 2017CHOL    R623836  23.217  18.016   6.785
 2017CHOL    C123837  23.446  17.894   6.539
 2017CHOL    C223838  23.453  17.921   6.115
 2018CHOL   ROH23839  34.622   6.315   4.042
 2018CHOL    R123840  34.742   6.041   4.353
 2018CHOL    R223841  34.478   6.267   4.356
 2018CHOL    R323842  34.601   5.873   4.720
 2018CHOL    R423843  34.350   6.109   4.590
 2018CHOL    R523844  34.405   6.064   4.226
 2018CHOL    R623845  34.341   5.839   4.632
 2018CHOL    C123846  34.295   5.896   4.982
 2018CHOL    C223847  34.321   5.864   5.407
 2019CHOL   ROH23848  26.669  26.371   7.033
 2019CHOL    R123849  26.369  26.378   6.722
 2019CHOL    R223850  26.711  26.433   6.692
 2019CHOL    R323851  26.333  26.380   6.296
 2019CHOL    R423852  26.689  26.380   6.388
 2019CHOL    R523853  26.673  26.184   6.702
 2019CHOL    R623854  26.536  26.197   6.255
 2019CHOL    C123855  26.554  26.397   5.960
 2019CHOL    C223856  26.384  26.443   5.569
 2020CHOL   ROH23857  28.920   1.385   6.988
 2020CHOL    R123858  29.151   1.600   6.694
 2020CHOL    R223859  28.975   1.302   6.654
 2020CHOL    R323860  29.220   1.614   6.272
 2020CHOL    R423861  28.980   1.345   6.347
 2020CHOL    R523862  28.810   1.493   6.641
 2020CHOL    R623863  28.954   1.576   6.204
 2020CHOL    C123864  29.125   1.423   5.929
 2020CHOL    C223865  29.319   1.518   5.541
 2021CHOL   ROH23866   0.804   3.925   6.934
 2021CHOL    R123867   0.972   3.907   6.537
 2021CHOL    R223868   0.643   3.848   6.635
 2021CHOL    R323869   0.851   3.887   6.127
 2021CHOL    R423870   0.552   3.888   6.341
 2021CHOL    R523871   0.676   4.097   6.620
 2021CHOL    R623872   0.643   4.067   6.155
 2021CHOL    C123873   0.524   3.853   5.894
 2021CHOL    C223874   0.505   3.912   5.445
 2022CHOL   ROH23875  16.790  11.894   7.154
 2022CHOL    R123876  16.977  11.737   6.799
 2022CHOL    R223877  16.640  11.736   6.883
 2022CHOL    R323878  16.879  11.594   6.408
 2022CHOL    R423879  16.570  11.685   6.585
 2022CHOL    R523880  16.697  11.964   6.793
 2022CHOL    R623881  16.687  11.787   6.360
 2022CHOL    C123882  16.563  11.509   6.172
 2022CHOL    C223883  16.718  11.488   5.752
 2023CHOL   ROH23884   9.285  35.937   6.757
 2023CHOL    R123885   9.403  36.028   6.352
 2023CHOL    R223886   9.138  35.829   6.459
 2023CHOL    R323887   9.261  35.999   5.950
 2023CHOL    R423888   9.010  35.857   6.179
 2023CHOL    R523889   9.067  36.070   6.476
 2023CHOL    R623890   9.001  36.073   6.013
 2023CHOL    C123891   8.953  35.856   5.733
 2023CHOL    C223892   9.097  35.757   5.338
 2024CHOL   ROH23893   0.807  26.148   4.179
 2024CHOL    R123894   0.426  26.023   4.339
 2024CHOL    R223895   0.726  25.847   4.335
 2024CHOL    R323896   0.254  25.722   4.590
 2024CHOL    R423897   0.616  25.662   4.558
 2024CHOL    R523898   0.735  26.011   4.526
 2024CHOL    R623899   0.461  25.725   4.774
 2024CHOL    C123900   0.349  25.386   4.791
 2024CHOL    C223901  -0.040  25.239   4.926
 2025CHOL   ROH23902  27.594  11.770   7.245
 2025CHOL    R123903  27.917  12.005   7.082
 2025CHOL    R223904  27.699  11.793   6.913
 2025CHOL    R323905  28.072  12.142   6.707
 2025CHOL    R423906  27.774  11.934   6.647
 2025CHOL    R523907  27.580  12.012   6.953
 2025CHOL    R623908  27.823  12.198   6.599
 2025CHOL    C123909  28.013  12.109   6.310
 2025CHOL    C223910  28.213  12.321   5.994
 2026CHOL   ROH23911  11.636   0.221   6.571
 2026CHOL    R123912  11.785   0.113   6.181
 2026CHOL    R223913  11.459   0.089   6.300
 2026CHOL    R323914  11.646   0.012   5.789
 2026CHOL    R423915  11.357   0.071   6.008
 2026CHOL    R523916  11.500   0.329   6.233
 2026CHOL    R623917  11.445   0.202   5.786
 2026CHOL    C123918  11.308  -0.056   5.580
 2026CHOL    C223919  11.316  -0.208   5.168
 2027CHOL   ROH23920  16.059  27.273   6.949
 2027CHOL    R123921  15.762  27.259   6.637
 2027CHOL    R223922  16.106  27.302   6.605
 2027CHOL    R323923  15.729  27.221   6.212
 2027CHOL    R423924  16.085  27.220   6.307
 2027CHOL    R523925  16.061  27.056   6.638
 2027CHOL    R623926  15.928  27.030   6.190
 2027CHOL    C123927  15.953  27.201   5.878
 2027CHOL    C223928  15.700  27.090   5.565
 2028CHOL   ROH23929   9.747  12.808   7.003
 2028CHOL    R123930   9.987  12.766   6.647
 2028CHOL    R223931   9.662  12.887   6.674
 2028CHOL    R323932   9.996  12.886   6.237
 2028CHOL    R423933   9.693  13.020   6.396
 2028CHOL    R523934   9.820  13.072   6.739
 2028CHOL    R623935   9.910  13.144   6.286
 2028CHOL    C123936   9.780  13.082   5.959
 2028CHOL    C223937   9.934  13.148   5.537
 2029CHOL   ROH23938  11.370   6.921   7.384
 2029CHOL    R123939  11.513   6.729   7.026
 2029CHOL    R223940  11.419   7.061   7.069
 2029CHOL    R323941  11.659   6.822   6.635
 2029CHOL    R423942  11.574   7.134   6.810
 2029CHOL    R523943  11.653   7.034   7.158
 2029CHOL    R623944  11.812   7.038   6.718
 2029CHOL    C123945  11.721   7.134   6.386
 2029CHOL    C223946  11.730   6.983   5.967
 2030CHOL   ROH23947   4.965   0.936   7.021
 2030CHOL    R123948   4.861   0.830   6.616
 2030CHOL    R223949   5.146   0.994   6.729
 2030CHOL    R323950   5.033   0.801   6.226
 2030CHOL    R423951   5.288   0.923   6.462
 2030CHOL    R523952   5.177   0.747   6.769
 2030CHOL    R623953   5.272   0.694   6.314
 2030CHOL    C123954   5.374   0.876   6.024
 2030CHOL    C223955   5.378   1.001   5.608
 2031CHOL   ROH23956   2.705  30.784   4.408
 2031CHOL    R123957   2.561  31.080   4.686
 2031CHOL    R223958   2.704  30.771   4.756
 2031CHOL    R323959   2.575  31.180   5.101
 2031CHOL    R423960   2.762  30.868   5.045
 2031CHOL    R523961   2.890  30.933   4.703
 2031CHOL    R623962   2.842  31.114   5.132
 2031CHOL    C123963   2.709  31.042   5.456
 2031CHOL    C223964   2.326  31.070   5.695
 2032CHOL   ROH23965  13.857  26.703   6.586
 2032CHOL    R123966  14.076  26.931   6.292
 2032CHOL    R223967  13.843  26.678   6.239
 2032CHOL    R323968  14.080  27.013   5.872
 2032CHOL    R423969  13.808  26.777   5.947
 2032CHOL    R523970  13.717  26.891   6.287
 2032CHOL    R623971  13.805  27.032   5.850
 2032CHOL    C123972  13.899  26.909   5.527
 2032CHOL    C223973  14.038  27.020   5.136
 2033CHOL   ROH23974  35.430  20.577   4.441
 2033CHOL    R123975  35.752  20.527   4.724
 2033CHOL    R223976  35.423  20.619   4.787
 2033CHOL    R323977  35.823  20.493   5.144
 2033CHOL    R423978  35.462  20.541   5.085
 2033CHOL    R523979  35.429  20.369   4.759
 2033CHOL    R623980  35.602  20.332   5.192
 2033CHOL    C123981  35.633  20.512   5.500
 2033CHOL    C223982  35.876  20.509   5.869
 2034CHOL   ROH23983  24.572  18.442   7.110
 2034CHOL    R123984  24.434  18.682   6.779
 2034CHOL    R223985  24.516  18.344   6.780
 2034CHOL    R323986  24.282  18.643   6.381
 2034CHOL    R423987  24.356  18.309   6.516
 2034CHOL    R523988  24.283  18.368   6.874
 2034CHOL    R623989  24.122  18.425   6.439
 2034CHOL    C123990  24.207  18.367   6.097
 2034CHOL    C223991  24.193  18.425   5.677
 2035CHOL   ROH23992  24.907  27.970   7.167
 2035CHOL    R123993  24.632  28.024   6.839
 2035CHOL    R223994  24.980  28.036   6.832
 2035CHOL    R323995  24.624  28.043   6.412
 2035CHOL    R423996  24.971  27.994   6.525
 2035CHOL    R523997  24.910  27.793   6.830
 2035CHOL    R623998  24.805  27.836   6.377
 2035CHOL    C123999  24.868  28.041   6.090
 2035CHOL    C224000  24.697  28.094   5.659
 2036CHOL   ROH24001   2.053  24.502   6.112
 2036CHOL    R124002   1.753  24.731   5.902
 2036CHOL    R224003   2.072  24.644   5.794
 2036CHOL    R324004   1.663  24.882   5.513
 2036CHOL    R424005   1.985  24.704   5.502
 2036CHOL    R524006   1.921  24.445   5.760
 2036CHOL    R624007   1.746  24.654   5.380
 2036CHOL    C124008   1.816  24.910   5.141
 2036CHOL    C224009   1.637  25.150   4.829
 2037CHOL   ROH24010   8.077  18.637   7.017
 2037CHOL    R124011   8.006  18.960   6.740
 2037CHOL    R224012   8.142  18.647   6.674
 2037CHOL    R324013   7.991  19.040   6.320
 2037CHOL    R424014   8.078  18.687   6.373
 2037CHOL    R524015   7.891  18.622   6.686
 2037CHOL    R624016   7.861  18.804   6.256
 2037CHOL    C124017   8.055  18.866   5.962
 2037CHOL    C224018   7.809  18.931   5.627
 2038CHOL   ROH24019  23.467  22.643   6.857
 2038CHOL    R124020  23.184  22.676   6.533
 2038CHOL    R224021  23.518  22.580   6.517
 2038CHOL    R324022  23.134  22.566   6.123
 2038CHOL    R424023  23.464  22.453   6.240
 2038CHOL    R524024  23.384  22.381   6.594
 2038CHOL    R624025  23.245  22.314   6.153
 2038CHOL    C124026  23.331  22.395   5.815
 2038CHOL    C224027  23.275  22.476   5.371
 2039CHOL   ROH24028   2.613   0.079   7.011
 2039CHOL    R124029   2.426   0.288   6.683
 2039CHOL    R224030   2.534  -0.043   6.694
 2039CHOL    R324031   2.242   0.213   6.304
 2039CHOL    R424032   2.354  -0.106   6.450
 2039CHOL    R524033   2.310  -0.030   6.809
 2039CHOL    R624034   2.105  -0.012   6.389
 2039CHOL    C124035   2.163  -0.085   6.044
 2039CHOL    C224036   2.145  -0.108   5.597
 2040CHOL   ROH24037  13.550  33.876   4.365
 2040CHOL    R124038  13.469  33.640   4.717
 2040CHOL    R224039  13.446  33.986   4.679
 2040CHOL    R324040  13.288  33.672   5.103
 2040CHOL    R424041  13.267  33.997   4.932
 2040CHOL    R524042  13.238  33.882   4.581
 2040CHOL    R624043  13.074  33.823   5.015
 2040CHOL    C124044  13.116  33.939   5.351
 2040CHOL    C224045  13.004  33.959   5.778
 2041CHOL   ROH24046  10.236  33.515   7.253
 2041CHOL    R124047  10.252  33.652   6.844
 2041CHOL    R224048  10.173  33.334   6.961
 2041CHOL    R324049  10.137  33.534   6.450
 2041CHOL    R424050  10.040  33.271   6.689
 2041CHOL    R524051   9.968  33.480   6.986
 2041CHOL    R624052   9.891  33.434   6.527
 2041CHOL    C124053   9.972  33.227   6.247
 2041CHOL    C224054   9.926  33.240   5.804
 2042CHOL   ROH24055  30.239  16.559   7.143
 2042CHOL    R124056  30.372  16.297   6.826
 2042CHOL    R224057  30.163  16.575   6.803
 2042CHOL    R324058  30.386  16.273   6.400
 2042CHOL    R424059  30.220  16.587   6.498
 2042CHOL    R524060  30.402  16.657   6.813
 2042CHOL    R624061  30.453  16.539   6.364
 2042CHOL    C124062  30.267  16.467   6.067
 2042CHOL    C224063  30.473  16.342   5.700
 2043CHOL   ROH24064   0.962  29.093   6.596
 2043CHOL    R124065   0.954  29.226   6.186
 2043CHOL    R224066   1.060  28.919   6.310
 2043CHOL    R324067   0.989  29.075   5.787
 2043CHOL    R424068   1.031  28.798   6.026
 2043CHOL    R524069   0.808  28.916   6.298
 2043CHOL    R624070   0.841  28.846   5.836
 2043CHOL    C124071   1.067  28.736   5.583
 2043CHOL    C224072   1.022  28.670   5.140
 2044CHOL   ROH24073  11.235   0.999   3.496
 2044CHOL    R124074  10.841   1.158   3.568
 2044CHOL    R224075  11.086   1.077   3.801
 2044CHOL    R324076  10.606   1.335   3.879
 2044CHOL    R424077  10.940   1.252   4.010
 2044CHOL    R524078  11.142   1.303   3.705
 2044CHOL    R624079  10.812   1.491   3.977
 2044CHOL    C124080  10.618   1.428   4.271
 2044CHOL    C224081  10.258   1.411   4.518
 2045CHOL   ROH24082  34.671  24.039   7.588
 2045CHOL    R124083  34.772  23.796   7.246
 2045CHOL    R224084  34.590  24.093   7.253
 2045CHOL    R324085  34.776  23.810   6.819
 2045CHOL    R424086  34.642  24.127   6.949
 2045CHOL    R524087  34.835  24.151   7.264
 2045CHOL    R624088  34.867  24.071   6.805
 2045CHOL    C124089  34.669  24.044   6.509
 2045CHOL    C224090  34.773  23.840   6.126
 2046CHOL   ROH24091  27.934  35.513   3.982
 2046CHOL    R124092  27.544  35.434   4.148
 2046CHOL    R224093  27.850  35.447   4.314
 2046CHOL    R324094  27.343  35.407   4.525
 2046CHOL    R424095  27.699  35.482   4.582
 2046CHOL    R524096  27.770  35.683   4.280
 2046CHOL    R624097  27.472  35.625   4.635
 2046CHOL    C124098  27.411  35.419   4.922
 2046CHOL    C224099  27.337  35.137   5.244
 2047CHOL   ROH24100  29.023  25.212   3.541
 2047CHOL    R124101  28.967  25.486   3.869
 2047CHOL    R224102  28.948  25.139   3.874
 2047CHOL    R324103  28.939  25.493   4.296
 2047CHOL    R424104  28.983  25.146   4.182
 2047CHOL    R524105  29.192  25.204   3.881
 2047CHOL    R624106  29.141  25.308   4.334
 2047CHOL    C124107  28.929  25.248   4.616
 2047CHOL    C224108  28.669  25.266   4.951
 2048CHOL   ROH24109  34.102   6.198   3.918
 2048CHOL    R124110  34.046   5.935   4.256
 2048CHOL    R224111  34.060   6.283   4.253
 2048CHOL    R324112  33.929   5.944   4.667
 2048CHOL    R424113  33.923   6.286   4.531
 2048CHOL    R524114  33.829   6.213   4.181
 2048CHOL    R624115  33.724   6.126   4.628
 2048CHOL    C124116  33.829   6.200   4.962
 2048CHOL    C224117  33.892   6.037   5.354
 2049CHOL   ROH24118  32.383  31.298   3.883
 2049CHOL    R124119  32.245  31.547   4.206
 2049CHOL    R224120  32.136  31.228   4.118
 2049CHOL    R324121  32.009  31.527   4.563
 2049CHOL    R424122  32.012  31.197   4.401
 2049CHOL    R524123  32.350  31.204   4.249
 2049CHOL    R624124  32.108  31.281   4.642
 2049CHOL    C124125  31.776  31.276   4.774
 2049CHOL    C224126  31.503  31.273   5.124
 2050CHOL   ROH24127  26.018   7.427   7.117
 2050CHOL    R124128  26.315   7.606   6.861
 2050CHOL    R224129  26.024   7.438   6.769
 2050CHOL    R324130  26.376   7.720   6.453
 2050CHOL    R424131  26.043   7.568   6.488
 2050CHOL    R524132  25.961   7.674   6.833
 2050CHOL    R624133  26.120   7.820   6.419
 2050CHOL    C124134  26.201   7.705   6.090
 2050CHOL    C224135  26.421   7.825   5.702
 2051CHOL   ROH24136  23.529  28.827   6.831
 2051CHOL    R124137  23.191  28.729   6.581
 2051CHOL    R224138  23.428  28.979   6.534
 2051CHOL    R324139  23.031  28.808   6.192
 2051CHOL    R424140  23.345  28.995   6.235
 2051CHOL    R524141  23.528  28.761   6.457
 2051CHOL    R624142  23.276  28.794   6.064
 2051CHOL    C124143  23.098  29.029   5.862
 2051CHOL    C224144  22.986  28.961   5.429
 2052CHOL   ROH24145   8.016  16.104   6.968
 2052CHOL    R124146   8.148  16.240   6.580
 2052CHOL    R224147   7.939  15.973   6.654
 2052CHOL    R324148   8.063  16.190   6.164
 2052CHOL    R424149   7.839  15.975   6.361
 2052CHOL    R524150   7.802  16.184   6.664
 2052CHOL    R624151   7.789  16.188   6.197
 2052CHOL    C124152   7.832  15.977   5.912
 2052CHOL    C224153   8.024  15.778   5.554
 2053CHOL   ROH24154  11.336  19.127   6.817
 2053CHOL    R124155  11.193  19.239   6.426
 2053CHOL    R224156  11.462  19.033   6.506
 2053CHOL    R324157  11.236  19.133   6.014
 2053CHOL    R424158  11.455  18.918   6.218
 2053CHOL    R524159  11.251  18.897   6.527
 2053CHOL    R624160  11.240  18.860   6.061
 2053CHOL    C124161  11.446  18.889   5.770
 2053CHOL    C224162  11.212  18.689   5.436
 2054CHOL   ROH24163  13.242  11.198   3.543
 2054CHOL    R124164  12.956  11.283   3.855
 2054CHOL    R224165  13.166  11.007   3.825
 2054CHOL    R324166  12.844  11.154   4.247
 2054CHOL    R424167  13.125  10.948   4.127
 2054CHOL    R524168  13.301  11.199   3.919
 2054CHOL    R624169  13.104  11.123   4.336
 2054CHOL    C124170  12.930  10.875   4.525
 2054CHOL    C224171  12.830  10.984   4.922
 2055CHOL   ROH24172   9.934  14.737   5.537
 2055CHOL    R124173   9.650  14.845   5.843
 2055CHOL    R224174   9.910  14.615   5.863
 2055CHOL    R324175   9.582  14.804   6.264
 2055CHOL    R424176   9.894  14.630   6.172
 2055CHOL    R524177  10.007  14.846   5.894
 2055CHOL    R624178   9.847  14.845   6.333
 2055CHOL    C124179   9.734  14.626   6.592
 2055CHOL    C224180   9.667  14.749   7.023
 2056CHOL   ROH24181  10.038   4.050   3.763
 2056CHOL    R124182  10.272   3.993   4.121
 2056CHOL    R224183   9.935   3.922   4.071
 2056CHOL    R324184  10.255   3.796   4.501
 2056CHOL    R424185   9.941   3.735   4.318
 2056CHOL    R524186  10.070   3.733   3.971
 2056CHOL    R624187  10.138   3.566   4.402
 2056CHOL    C124188  10.007   3.580   4.735
 2056CHOL    C224189  10.039   3.567   5.152
 2057CHOL   ROH24190   2.822  31.678   3.987
 2057CHOL    R124191   2.870  31.373   4.288
 2057CHOL    R224192   2.928  31.715   4.317
 2057CHOL    R324193   2.927  31.329   4.710
 2057CHOL    R424194   2.915  31.687   4.625
 2057CHOL    R524195   2.680  31.676   4.339
 2057CHOL    R624196   2.751  31.531   4.778
 2057CHOL    C124197   2.988  31.545   5.045
 2057CHOL    C224198   3.115  31.347   5.416
 2058CHOL   ROH24199  18.397  15.485   7.216
 2058CHOL    R124200  18.605  15.670   6.886
 2058CHOL    R224201  18.421  15.375   6.886
 2058CHOL    R324202  18.637  15.649   6.460
 2058CHOL    R424203  18.399  15.393   6.577
 2058CHOL    R524204  18.259  15.568   6.872
 2058CHOL    R624205  18.365  15.613   6.419
 2058CHOL    C124206  18.508  15.435   6.143
 2058CHOL    C224207  18.875  15.423   5.887
 2059CHOL   ROH24208  27.124  23.135   3.763
 2059CHOL    R124209  27.159  22.969   4.160
 2059CHOL    R224210  27.179  23.303   4.063
 2059CHOL    R324211  27.162  23.089   4.570
 2059CHOL    R424212  27.126  23.387   4.357
 2059CHOL    R524213  26.935  23.240   4.075
 2059CHOL    R624214  26.958  23.275   4.541
 2059CHOL    C124215  27.154  23.417   4.804
 2059CHOL    C224216  27.169  23.433   5.257
 2060CHOL   ROH24217  15.311  31.063   3.789
 2060CHOL    R124218  15.376  30.852   4.159
 2060CHOL    R224219  15.234  31.166   4.113
 2060CHOL    R324220  15.265  30.864   4.572
 2060CHOL    R424221  15.109  31.146   4.396
 2060CHOL    R524222  15.058  30.992   4.063
 2060CHOL    R624223  15.001  30.930   4.523
 2060CHOL    C124224  15.061  31.086   4.839
 2060CHOL    C224225  15.193  30.974   5.224
 2061CHOL   ROH24226  35.697  23.723   7.427
 2061CHOL    R124227  36.039  23.592   7.199
 2061CHOL    R224228  35.705  23.594   7.103
 2061CHOL    R324229  36.152  23.487   6.800
 2061CHOL    R424230  35.794  23.572   6.807
 2061CHOL    R524231  35.795  23.828   7.075
 2061CHOL    R624232  36.006  23.690   6.681
 2061CHOL    C124233  35.998  23.434   6.431
 2061CHOL    C224234  36.090  23.194   6.076
 2062CHOL   ROH24235   3.309  32.105   6.833
 2062CHOL    R124236   3.489  32.364   6.538
 2062CHOL    R224237   3.284  32.088   6.485
 2062CHOL    R324238   3.467  32.458   6.121
 2062CHOL    R424239   3.227  32.190   6.198
 2062CHOL    R524240   3.137  32.284   6.545
 2062CHOL    R624241   3.191  32.445   6.109
 2062CHOL    C124242   3.285  32.343   5.780
 2062CHOL    C224243   3.279  32.407   5.336
 2063CHOL   ROH24244  25.528   4.677   6.865
 2063CHOL    R124245  25.617   5.031   6.636
 2063CHOL    R224246  25.545   4.711   6.519
 2063CHOL    R324247  25.599   5.180   6.235
 2063CHOL    R424248  25.480   4.832   6.241
 2063CHOL    R524249  25.327   4.823   6.578
 2063CHOL    R624250  25.353   5.066   6.179
 2063CHOL    C124251  25.512   5.066   5.858
 2063CHOL    C224252  25.757   5.207   5.530
 2064CHOL   ROH24253  24.887  14.721   4.317
 2064CHOL    R124254  24.842  14.773   4.742
 2064CHOL    R224255  25.128  14.683   4.566
 2064CHOL    R324256  25.075  14.811   5.099
 2064CHOL    R424257  25.299  14.765   4.811
 2064CHOL    R524258  25.100  14.934   4.548
 2064CHOL    R624259  25.267  14.974   4.983
 2064CHOL    C124260  25.456  14.798   5.231
 2064CHOL    C224261  25.499  14.927   5.655
 2065CHOL   ROH24262  34.100  27.095   4.126
 2065CHOL    R124263  33.907  27.067   4.511
 2065CHOL    R224264  34.240  27.005   4.433
 2065CHOL    R324265  34.000  27.032   4.927
 2065CHOL    R424266  34.313  27.035   4.732
 2065CHOL    R524267  34.210  27.255   4.453
 2065CHOL    R624268  34.213  27.209   4.918
 2065CHOL    C124269  34.312  26.985   5.179
 2065CHOL    C224270  34.330  26.840   5.571
 2066CHOL   ROH24271   2.926   1.967   3.750
 2066CHOL    R124272   2.513   1.947   3.874
 2066CHOL    R224273   2.798   1.890   4.065
 2066CHOL    R324274   2.273   1.926   4.227
 2066CHOL    R424275   2.629   1.930   4.322
 2066CHOL    R524276   2.764   2.139   4.048
 2066CHOL    R624277   2.426   2.107   4.369
 2066CHOL    C124278   2.302   1.894   4.628
 2066CHOL    C224279   1.926   1.758   4.811
 2067CHOL   ROH24280   3.859  17.960   7.004
 2067CHOL    R124281   4.048  17.709   6.709
 2067CHOL    R224282   3.830  17.975   6.656
 2067CHOL    R324283   4.123  17.689   6.288
 2067CHOL    R424284   3.927  17.992   6.363
 2067CHOL    R524285   4.059  18.070   6.700
 2067CHOL    R624286   4.179  17.959   6.262
 2067CHOL    C124287   4.039  17.880   5.942
 2067CHOL    C224288   4.213  17.753   5.555
 2068CHOL   ROH24289  29.664   7.748   4.033
 2068CHOL    R124290  30.010   7.785   4.288
 2068CHOL    R224291  29.691   7.676   4.373
 2068CHOL    R324292  30.152   7.670   4.674
 2068CHOL    R424293  29.809   7.545   4.628
 2068CHOL    R524294  29.813   7.484   4.263
 2068CHOL    R624295  30.046   7.415   4.662
 2068CHOL    C124296  30.034   7.485   5.013
 2068CHOL    C224297  30.346   7.324   5.274
 2069CHOL   ROH24298  21.752  29.835   6.713
 2069CHOL    R124299  21.952  29.927   6.342
 2069CHOL    R224300  21.618  29.845   6.392
 2069CHOL    R324301  21.867  30.022   5.934
 2069CHOL    R424302  21.551  29.967   6.114
 2069CHOL    R524303  21.648  30.089   6.450
 2069CHOL    R624304  21.654  30.189   5.994
 2069CHOL    C124305  21.561  30.057   5.674
 2069CHOL    C224306  21.681  30.176   5.287
 2070CHOL   ROH24307  25.064  12.863   7.420
 2070CHOL    R124308  25.277  12.739   7.066
 2070CHOL    R224309  24.957  12.873   7.088
 2070CHOL    R324310  25.259  12.769   6.640
 2070CHOL    R424311  24.970  12.943   6.786
 2070CHOL    R524312  25.122  13.063   7.102
 2070CHOL    R624313  25.180  13.035   6.639
 2070CHOL    C124314  25.026  12.909   6.342
 2070CHOL    C224315  25.141  12.832   5.946
 2071CHOL   ROH24316  12.039  11.455   6.836
 2071CHOL    R124317  11.806  11.253   6.534
 2071CHOL    R224318  11.828  11.595   6.596
 2071CHOL    R324319  11.583  11.333   6.177
 2071CHOL    R424320  11.715  11.649   6.312
 2071CHOL    R524321  12.031  11.526   6.462
 2071CHOL    R624322  11.765  11.517   6.078
 2071CHOL    C124323  11.455  11.638   5.946
 2071CHOL    C224324  11.106  11.698   5.696
 2072CHOL   ROH24325  32.676  28.879   5.141
 2072CHOL    R124326  32.442  29.136   5.396
 2072CHOL    R224327  32.341  28.846   5.233
 2072CHOL    R324328  32.069  29.145   5.606
 2072CHOL    R424329  32.099  28.826   5.425
 2072CHOL    R524330  32.466  28.779   5.442
 2072CHOL    R624331  32.085  28.882   5.692
 2072CHOL    C124332  31.732  28.931   5.662
 2072CHOL    C224333  31.440  29.048   5.983
 2073CHOL   ROH24334  14.178  18.493   7.157
 2073CHOL    R124335  13.960  18.524   6.787
 2073CHOL    R224336  14.305  18.529   6.834
 2073CHOL    R324337  14.020  18.507   6.364
 2073CHOL    R424338  14.343  18.461   6.534
 2073CHOL    R524339  14.228  18.288   6.841
 2073CHOL    R624340  14.197  18.295   6.374
 2073CHOL    C124341  14.311  18.474   6.086
 2073CHOL    C224342  14.382  18.524   5.654
 2074CHOL   ROH24343  13.886   3.388   7.201
 2074CHOL    R124344  14.090   3.670   6.946
 2074CHOL    R224345  13.873   3.415   6.853
 2074CHOL    R324346  14.088   3.815   6.544
 2074CHOL    R424347  13.831   3.554   6.580
 2074CHOL    R524348  13.734   3.610   6.933
 2074CHOL    R624349  13.812   3.820   6.522
 2074CHOL    C124350  13.913   3.754   6.186
 2074CHOL    C224351  13.960   3.966   5.794
 2075CHOL   ROH24352   8.227  21.015   6.787
 2075CHOL    R124353   8.089  20.817   6.430
 2075CHOL    R224354   8.274  21.111   6.455
 2075CHOL    R324355   8.146  20.820   6.006
 2075CHOL    R424356   8.358  21.079   6.159
 2075CHOL    R524357   8.432  20.916   6.483
 2075CHOL    R624358   8.420  20.852   6.020
 2075CHOL    C124359   8.340  21.018   5.714
 2075CHOL    C224360   8.384  20.845   5.308
 2076CHOL   ROH24361   1.537  22.068   4.031
 2076CHOL    R124362   1.474  22.254   4.415
 2076CHOL    R224363   1.546  21.920   4.347
 2076CHOL    R324364   1.524  22.178   4.833
 2076CHOL    R424365   1.634  21.883   4.641
 2076CHOL    R524366   1.762  22.050   4.337
 2076CHOL    R624367   1.771  22.055   4.804
 2076CHOL    C124368   1.636  21.889   5.091
 2076CHOL    C224369   1.861  21.981   5.445
 2077CHOL   ROH24370  18.656   0.704   7.153
 2077CHOL    R124371  18.617   0.331   6.940
 2077CHOL    R224372  18.433   0.623   6.898
 2077CHOL    R324373  18.432   0.166   6.591
 2077CHOL    R424374  18.344   0.522   6.619
 2077CHOL    R524375  18.652   0.652   6.777
 2077CHOL    R624376  18.486   0.385   6.431
 2077CHOL    C124377  18.181   0.262   6.291
 2077CHOL    C224378  17.954   0.022   5.995
 2078CHOL   ROH24379  32.449  23.700   7.394
 2078CHOL    R124380  32.209  23.531   7.078
 2078CHOL    R224381  32.465  23.765   7.052
 2078CHOL    R324382  32.197  23.499   6.652
 2078CHOL    R424383  32.490  23.698   6.750
 2078CHOL    R524384  32.570  23.536   7.073
 2078CHOL    R624385  32.469  23.457   6.624
 2078CHOL    C124386  32.386  23.626   6.319
 2078CHOL    C224387  32.090  23.724   6.009
 2079CHOL   ROH24388  25.995  19.366   5.378
 2079CHOL    R124389  25.565  19.394   5.398
 2079CHOL    R224390  25.757  19.181   5.202
 2079CHOL    R324391  25.213  19.183   5.280
 2079CHOL    R424392  25.509  18.999   5.164
 2079CHOL    R524393  25.747  19.084   5.435
 2079CHOL    R624394  25.314  18.933   5.342
 2079CHOL    C124395  25.092  18.860   5.072
 2079CHOL    C224396  24.741  18.857   4.859
 2080CHOL   ROH24397  34.849  35.499   6.636
 2080CHOL    R124398  35.010  35.306   6.285
 2080CHOL    R224399  34.853  35.616   6.307
 2080CHOL    R324400  35.115  35.390   5.879
 2080CHOL    R424401  34.978  35.694   6.034
 2080CHOL    R524402  35.092  35.644   6.383
 2080CHOL    R624403  35.226  35.637   5.935
 2080CHOL    C124404  35.101  35.682   5.602
 2080CHOL    C224405  35.071  35.572   5.177
 2081CHOL   ROH24406  29.196  10.599   7.284
 2081CHOL    R124407  29.343  10.655   6.882
 2081CHOL    R224408  29.197  10.371   7.020
 2081CHOL    R324409  29.331  10.473   6.496
 2081CHOL    R424410  29.140  10.267   6.734
 2081CHOL    R524411  29.012  10.532   6.958
 2081CHOL    R624412  29.063  10.405   6.511
 2081CHOL    C124413  29.195  10.144   6.305
 2081CHOL    C224414  29.169  10.042   5.901
 2082CHOL   ROH24415  34.543   2.908   6.937
 2082CHOL    R124416  34.427   2.643   6.616
 2082CHOL    R224417  34.380   2.987   6.639
 2082CHOL    R324418  34.292   2.653   6.211
 2082CHOL    R424419  34.336   2.997   6.332
 2082CHOL    R524420  34.618   2.946   6.566
 2082CHOL    R624421  34.462   2.857   6.135
 2082CHOL    C124422  34.181   2.909   5.920
 2082CHOL    C224423  34.120   2.970   5.493
 2083CHOL   ROH24424  21.414  20.198   7.138
 2083CHOL    R124425  21.184  19.846   7.043
 2083CHOL    R224426  21.421  20.008   6.846
 2083CHOL    R324427  21.168  19.527   6.759
 2083CHOL    R424428  21.446  19.752   6.673
 2083CHOL    R524429  21.543  19.864   7.012
 2083CHOL    R624430  21.442  19.490   6.750
 2083CHOL    C124431  21.342  19.396   6.420
 2083CHOL    C224432  21.274  19.081   6.149
 2084CHOL   ROH24433  29.670  35.679   4.013
 2084CHOL    R124434  29.854  35.409   4.295
 2084CHOL    R224435  29.672  35.698   4.361
 2084CHOL    R324436  29.857  35.317   4.713
 2084CHOL    R424437  29.630  35.600   4.652
 2084CHOL    R524438  29.508  35.512   4.314
 2084CHOL    R624439  29.584  35.348   4.745
 2084CHOL    C124440  29.709  35.443   5.066
 2084CHOL    C224441  29.597  35.184   5.405
 2085CHOL   ROH24442  31.123   7.743   3.708
 2085CHOL    R124443  31.111   7.380   3.941
 2085CHOL    R224444  31.099   7.709   4.054
 2085CHOL    R324445  31.024   7.242   4.336
 2085CHOL    R424446  30.983   7.608   4.323
 2085CHOL    R524447  30.869   7.646   3.973
 2085CHOL    R624448  30.804   7.407   4.370
 2085CHOL    C124449  30.928   7.376   4.704
 2085CHOL    C224450  30.987   7.186   5.101
 2086CHOL   ROH24451  16.897   6.304   7.513
 2086CHOL    R124452  16.666   6.421   7.168
 2086CHOL    R224453  16.976   6.263   7.176
 2086CHOL    R324454  16.647   6.361   6.745
 2086CHOL    R424455  16.933   6.173   6.882
 2086CHOL    R524456  16.798   6.088   7.216
 2086CHOL    R624457  16.704   6.090   6.758
 2086CHOL    C124458  16.843   6.182   6.442
 2086CHOL    C224459  16.618   6.091   6.092
 2087CHOL   ROH24460   8.723  32.942   3.667
 2087CHOL    R124461   8.511  33.073   4.019
 2087CHOL    R224462   8.748  32.819   3.992
 2087CHOL    R324463   8.518  33.033   4.445
 2087CHOL    R424464   8.790  32.832   4.299
 2087CHOL    R524465   8.870  33.040   4.003
 2087CHOL    R624466   8.794  33.049   4.465
 2087CHOL    C124467   8.711  32.838   4.741
 2087CHOL    C224468   8.641  32.932   5.178
 2088CHOL   ROH24469   4.547   9.292   4.474
 2088CHOL    R124470   4.220   9.056   4.630
 2088CHOL    R224471   4.401   9.306   4.791
 2088CHOL    R324472   3.947   9.044   4.958
 2088CHOL    R424473   4.173   9.332   4.998
 2088CHOL    R524474   4.230   9.417   4.642
 2088CHOL    R624475   3.903   9.317   4.961
 2088CHOL    C124476   3.861   9.230   5.305
 2088CHOL    C224477   3.539   9.043   5.523
 2089CHOL   ROH24478   6.376  10.681   3.794
 2089CHOL    R124479   6.399  10.408   4.128
 2089CHOL    R224480   6.595  10.689   4.066
 2089CHOL    R324481   6.576  10.371   4.515
 2089CHOL    R424482   6.679  10.691   4.364
 2089CHOL    R524483   6.376  10.766   4.165
 2089CHOL    R624484   6.530  10.635   4.586
 2089CHOL    C124485   6.830  10.559   4.766
 2089CHOL    C224486   7.047  10.423   5.128
 2090CHOL   ROH24487  15.635  12.508   6.660
 2090CHOL    R124488  15.393  12.741   6.390
 2090CHOL    R224489  15.715  12.621   6.339
 2090CHOL    R324490  15.376  12.865   5.981
 2090CHOL    R424491  15.678  12.661   6.034
 2090CHOL    R524492  15.554  12.431   6.297
 2090CHOL    R624493  15.457  12.620   5.880
 2090CHOL    C124494  15.586  12.849   5.637
 2090CHOL    C224495  15.541  13.119   5.302
 2091CHOL   ROH24496  20.317  15.213   6.714
 2091CHOL    R124497  20.450  15.276   6.309
 2091CHOL    R224498  20.218  15.045   6.425
 2091CHOL    R324499  20.349  15.173   5.907
 2091CHOL    R424500  20.110  15.014   6.137
 2091CHOL    R524501  20.102  15.268   6.405
 2091CHOL    R624502  20.076  15.203   5.943
 2091CHOL    C124503  20.091  14.949   5.692
 2091CHOL    C224504  20.092  14.850   5.269
 2092CHOL   ROH24505  34.538   4.543   7.043
 2092CHOL    R124506  34.655   4.739   6.677
 2092CHOL    R224507  34.371   4.547   6.736
 2092CHOL    R324508  34.498   4.850   6.295
 2092CHOL    R424509  34.239   4.672   6.486
 2092CHOL    R524510  34.330   4.778   6.829
 2092CHOL    R624511  34.252   4.928   6.393
 2092CHOL    C124512  34.169   4.813   6.065
 2092CHOL    C224513  34.209   4.783   5.611
 2093CHOL   ROH24514  32.745  20.886   3.913
 2093CHOL    R124515  32.722  20.585   4.221
 2093CHOL    R224516  32.836  20.912   4.249
 2093CHOL    R324517  32.746  20.542   4.646
 2093CHOL    R424518  32.799  20.895   4.556
 2093CHOL    R524519  32.584  20.916   4.256
 2093CHOL    R624520  32.603  20.772   4.700
 2093CHOL    C124521  32.823  20.752   4.981
 2093CHOL    C224522  33.005  20.770   5.391
 2094CHOL   ROH24523  35.054  25.710   7.186
 2094CHOL    R124524  35.060  25.761   6.757
 2094CHOL    R224525  35.234  25.528   6.949
 2094CHOL    R324526  35.188  25.561   6.401
 2094CHOL    R424527  35.277  25.357   6.694
 2094CHOL    R524528  34.997  25.444   6.919
 2094CHOL    R624529  35.107  25.310   6.485
 2094CHOL    C124530  35.387  25.234   6.276
 2094CHOL    C224531  35.429  25.041   5.879
 2095CHOL   ROH24532  21.988  25.473   3.823
 2095CHOL    R124533  22.144  25.443   4.224
 2095CHOL    R224534  21.811  25.449   4.123
 2095CHOL    R324535  22.019  25.350   4.623
 2095CHOL    R424536  21.729  25.329   4.396
 2095CHOL    R524537  21.899  25.215   4.088
 2095CHOL    R624538  21.856  25.140   4.547
 2095CHOL    C124539  21.690  25.263   4.839
 2095CHOL    C224540  21.722  25.037   5.194
 2096CHOL   ROH24541  31.140   0.426   6.864
 2096CHOL    R124542  30.949   0.151   6.593
 2096CHOL    R224543  31.017   0.489   6.544
 2096CHOL    R324544  30.830   0.117   6.183
 2096CHOL    R424545  30.983   0.447   6.238
 2096CHOL    R524546  31.229   0.359   6.501
 2096CHOL    R624547  31.059   0.236   6.083
 2096CHOL    C124548  30.814   0.328   5.840
 2096CHOL    C224549  30.636   0.170   5.454
 2097CHOL   ROH24550  21.228  35.944   5.529
 2097CHOL    R124551  21.549  35.925   5.817
 2097CHOL    R224552  21.206  35.919   5.876
 2097CHOL    R324553  21.621  35.835   6.229
 2097CHOL    R424554  21.261  35.801   6.158
 2097CHOL    R524555  21.277  35.688   5.806
 2097CHOL    R624556  21.449  35.618   6.235
 2097CHOL    C124557  21.428  35.741   6.571
 2097CHOL    C224558  21.564  35.780   6.988
 2098CHOL   ROH24559  11.303  25.812   6.472
 2098CHOL    R124560  11.071  25.540   6.231
 2098CHOL    R224561  11.214  25.843   6.136
 2098CHOL    R324562  10.969  25.462   5.823
 2098CHOL    R424563  11.188  25.758   5.839
 2098CHOL    R524564  11.394  25.667   6.133
 2098CHOL    R624565  11.224  25.512   5.726
 2098CHOL    C124566  11.018  25.610   5.451
 2098CHOL    C224567  10.902  25.439   5.078
 2099CHOL   ROH24568  28.808  24.662   3.915
 2099CHOL    R124569  28.786  24.741   4.338
 2099CHOL    R224570  28.645  24.924   4.077
 2099CHOL    R324571  28.572  24.982   4.620
 2099CHOL    R424572  28.453  25.057   4.280
 2099CHOL    R524573  28.496  24.725   4.123
 2099CHOL    R624574  28.327  24.949   4.497
 2099CHOL    C124575  28.296  25.275   4.641
 2099CHOL    C224576  28.187  25.533   4.972
 2100CHOL   ROH24577  32.787  16.339   7.714
 2100CHOL    R124578  33.096  16.232   7.432
 2100CHOL    R224579  32.781  16.363   7.366
 2100CHOL    R324580  33.202  16.281   7.021
 2100CHOL    R424581  32.879  16.447   7.084
 2100CHOL    R524582  32.932  16.553   7.435
 2100CHOL    R624583  33.122  16.546   7.009
 2100CHOL    C124584  33.063  16.433   6.674
 2100CHOL    C224585  33.073  16.495   6.252
 2101CHOL   ROH24586   7.913  22.142   3.619
 2101CHOL    R124587   8.020  21.812   3.875
 2101CHOL    R224588   8.110  22.146   3.907
 2101CHOL    R324589   8.190  21.730   4.259
 2101CHOL    R424590   8.181  22.094   4.204
 2101CHOL    R524591   7.875  22.119   3.997
 2101CHOL    R624592   8.055  21.935   4.387
 2101CHOL    C124593   8.358  21.913   4.576
 2101CHOL    C224594   8.686  21.718   4.796
 2102CHOL   ROH24595  33.394  25.906   3.975
 2102CHOL    R124596  33.375  26.080   4.369
 2102CHOL    R224597  33.378  25.743   4.283
 2102CHOL    R324598  33.415  25.973   4.782
 2102CHOL    R424599  33.461  25.673   4.573
 2102CHOL    R524600  33.615  25.828   4.274
 2102CHOL    R624601  33.631  25.805   4.741
 2102CHOL    C124602  33.471  25.654   5.022
 2102CHOL    C224603  33.226  25.526   5.332
 2103CHOL   ROH24604  14.876  12.759   7.178
 2103CHOL    R124605  14.776  12.835   6.765
 2103CHOL    R224606  15.049  12.660   6.892
 2103CHOL    R324607  14.882  12.710   6.370
 2103CHOL    R424608  15.089  12.529   6.614
 2103CHOL    R524609  14.850  12.506   6.895
 2103CHOL    R624610  14.902  12.442   6.435
 2103CHOL    C124611  15.141  12.474   6.171
 2103CHOL    C224612  15.084  12.338   5.762
 2104CHOL   ROH24613  31.439  28.621   7.184
 2104CHOL    R124614  31.284  28.782   6.815
 2104CHOL    R224615  31.576  28.871   6.983
 2104CHOL    R324616  31.403  29.026   6.484
 2104CHOL    R424617  31.682  29.000   6.722
 2104CHOL    R524618  31.622  28.659   6.853
 2104CHOL    R624619  31.656  28.916   6.463
 2104CHOL    C124620  31.709  29.250   6.349
 2104CHOL    C224621  31.831  29.431   5.945
 2105CHOL   ROH24622  23.430  10.537   6.917
 2105CHOL    R124623  23.501  10.848   6.627
 2105CHOL    R224624  23.224  10.639   6.654
 2105CHOL    R324625  23.296  11.076   6.328
 2105CHOL    R424626  23.061  10.837   6.480
 2105CHOL    R524627  23.199  10.824   6.824
 2105CHOL    R624628  23.066  11.110   6.478
 2105CHOL    C124629  22.939  11.109   6.144
 2105CHOL    C224630  22.873  11.256   5.753
 2106CHOL   ROH24631  31.056   0.041   3.553
 2106CHOL    R124632  30.789   0.073   3.891
 2106CHOL    R224633  31.136   0.100   3.888
 2106CHOL    R324634  30.784   0.199   4.299
 2106CHOL    R424635  31.123   0.243   4.162
 2106CHOL    R524636  31.040   0.320   3.810
 2106CHOL    R624637  30.941   0.423   4.255
 2106CHOL    C124638  31.027   0.335   4.591
 2106CHOL    C224639  30.967   0.246   5.028
 2107CHOL   ROH24640  27.284  13.287   3.958
 2107CHOL    R124641  27.421  12.973   4.220
 2107CHOL    R224642  27.322  13.296   4.305
 2107CHOL    R324643  27.439  12.872   4.635
 2107CHOL    R424644  27.283  13.204   4.598
 2107CHOL    R524645  27.114  13.157   4.272
 2107CHOL    R624646  27.186  12.967   4.693
 2107CHOL    C124647  27.359  13.021   5.002
 2107CHOL    C224648  27.419  12.930   5.446
 2108CHOL   ROH24649  34.689  16.345   7.270
 2108CHOL    R124650  34.965  16.192   6.977
 2108CHOL    R224651  34.647  16.323   6.925
 2108CHOL    R324652  35.029  16.182   6.554
 2108CHOL    R424653  34.718  16.365   6.626
 2108CHOL    R524654  34.808  16.516   6.952
 2108CHOL    R624655  34.954  16.445   6.514
 2108CHOL    C124656  34.858  16.291   6.206
 2108CHOL    C224657  34.932  16.169   5.800
 2109CHOL   ROH24658  18.346   6.823   4.050
 2109CHOL    R124659  18.577   6.976   4.380
 2109CHOL    R224660  18.281   6.793   4.391
 2109CHOL    R324661  18.613   6.939   4.805
 2109CHOL    R424662  18.340   6.723   4.687
 2109CHOL    R524663  18.472   6.632   4.353
 2109CHOL    R624664  18.578   6.665   4.807
 2109CHOL    C124665  18.441   6.761   5.123
 2109CHOL    C224666  18.617   6.623   5.494
 2110CHOL   ROH24667  15.186   6.616   7.186
 2110CHOL    R124668  14.956   6.695   6.830
 2110CHOL    R224669  15.301   6.673   6.862
 2110CHOL    R324670  14.998   6.712   6.404
 2110CHOL    R424671  15.324   6.630   6.556
 2110CHOL    R524672  15.209   6.438   6.851
 2110CHOL    R624673  15.161   6.488   6.389
 2110CHOL    C124674  15.275   6.685   6.112
 2110CHOL    C224675  15.126   6.540   5.736
 2111CHOL   ROH24676  22.452  31.994   7.066
 2111CHOL    R124677  22.082  31.875   6.879
 2111CHOL    R224678  22.360  32.021   6.731
 2111CHOL    R324679  21.910  31.812   6.493
 2111CHOL    R424680  22.258  31.925   6.454
 2111CHOL    R524681  22.407  31.775   6.758
 2111CHOL    R624682  22.135  31.691   6.387
 2111CHOL    C124683  21.993  31.848   6.100
 2111CHOL    C224684  21.761  31.689   5.769
 2112CHOL   ROH24685  27.422  26.115   7.116
 2112CHOL    R124686  27.814  26.095   6.936
 2112CHOL    R224687  27.507  26.140   6.779
 2112CHOL    R324688  28.013  26.174   6.566
 2112CHOL    R424689  27.655  26.249   6.530
 2112CHOL    R524690  27.579  26.362   6.874
 2112CHOL    R624691  27.876  26.409   6.516
 2112CHOL    C124692  27.942  26.288   6.186
 2112CHOL    C224693  28.159  26.321   5.836
 2113CHOL   ROH24694  13.750  28.234   3.928
 2113CHOL    R124695  13.935  28.247   4.317
 2113CHOL    R224696  13.610  28.335   4.231
 2113CHOL    R324697  13.835  28.290   4.731
 2113CHOL    R424698  13.528  28.312   4.529
 2113CHOL    R524699  13.619  28.084   4.251
 2113CHOL    R624700  13.609  28.131   4.716
 2113CHOL    C124701  13.522  28.362   4.975
 2113CHOL    C224702  13.506  28.494   5.395
 2114CHOL   ROH24703  24.513  17.510   7.064
 2114CHOL    R124704  24.629  17.235   6.753
 2114CHOL    R224705  24.455  17.534   6.721
 2114CHOL    R324706  24.659  17.209   6.327
 2114CHOL    R424707  24.526  17.539   6.419
 2114CHOL    R524708  24.700  17.589   6.742
 2114CHOL    R624709  24.758  17.465   6.295
 2114CHOL    C124710  24.577  17.415   5.991
 2114CHOL    C224711  24.411  17.242   5.610
 2115CHOL   ROH24712   3.907   0.423   6.881
 2115CHOL    R124713   4.080   0.049   6.755
 2115CHOL    R224714   3.955   0.306   6.556
 2115CHOL    R324715   4.232  -0.146   6.406
 2115CHOL    R424716   4.113   0.191   6.316
 2115CHOL    R524717   4.188   0.370   6.631
 2115CHOL    R624718   4.362   0.079   6.309
 2115CHOL    C124719   4.275  -0.094   6.008
 2115CHOL    C224720   4.381  -0.384   5.676
 2116CHOL   ROH24721  23.895  11.260   6.943
 2116CHOL    R124722  24.054  11.092   6.579
 2116CHOL    R224723  23.735  11.220   6.636
 2116CHOL    R324724  23.965  11.061   6.162
 2116CHOL    R424725  23.696  11.247   6.330
 2116CHOL    R524726  23.892  11.414   6.596
 2116CHOL    R624727  23.875  11.322   6.138
 2116CHOL    C124728  23.680  11.152   5.891
 2116CHOL    C224729  23.632  10.799   5.613
 2117CHOL   ROH24730  16.422  34.912   5.336
 2117CHOL    R124731  16.214  34.625   5.090
 2117CHOL    R224732  16.517  34.586   5.257
 2117CHOL    R324733  16.216  34.208   4.992
 2117CHOL    R424734  16.487  34.278   5.231
 2117CHOL    R524735  16.331  34.553   5.424
 2117CHOL    R624736  16.263  34.124   5.251
 2117CHOL    C124737  16.423  33.868   5.059
 2117CHOL    C224738  16.272  33.462   4.927
 2118CHOL   ROH24739   4.701   4.889   3.891
 2118CHOL    R124740   4.541   4.798   4.281
 2118CHOL    R224741   4.775   5.042   4.196
 2118CHOL    R324742   4.520   4.959   4.677
 2118CHOL    R424743   4.716   5.186   4.463
 2118CHOL    R524744   4.546   5.130   4.140
 2118CHOL    R624745   4.478   5.220   4.593
 2118CHOL    C124746   4.654   5.267   4.901
 2118CHOL    C224747   4.346   5.469   5.145
 2119CHOL   ROH24748  31.765   2.037   7.092
 2119CHOL    R124749  31.571   2.098   6.712
 2119CHOL    R224750  31.902   2.163   6.798
 2119CHOL    R324751  31.662   2.181   6.302
 2119CHOL    R424752  31.975   2.168   6.496
 2119CHOL    R524753  31.880   1.916   6.751
 2119CHOL    R624754  31.881   2.011   6.293
 2119CHOL    C124755  31.971   2.265   6.058
 2119CHOL    C224756  31.850   2.251   5.660
 2120CHOL   ROH24757   3.558   3.258   3.816
 2120CHOL    R124758   3.772   3.190   4.184
 2120CHOL    R224759   3.480   3.373   4.136
 2120CHOL    R324760   3.725   3.231   4.608
 2120CHOL    R424761   3.421   3.353   4.440
 2120CHOL    R524762   3.418   3.129   4.145
 2120CHOL    R624763   3.462   3.144   4.610
 2120CHOL    C124764   3.469   3.371   4.886
 2120CHOL    C224765   3.534   3.611   5.242
 2121CHOL   ROH24766  19.564  28.475   4.280
 2121CHOL    R124767  19.367  28.107   4.392
 2121CHOL    R224768  19.532  28.334   4.598
 2121CHOL    R324769  19.228  27.898   4.738
 2121CHOL    R424770  19.385  28.213   4.843
 2121CHOL    R524771  19.302  28.425   4.551
 2121CHOL    R624772  19.128  28.124   4.863
 2121CHOL    C124773  19.223  27.919   5.141
 2121CHOL    C224774  18.861  27.695   5.267
 2122CHOL   ROH24775  30.726  23.866   6.843
 2122CHOL    R124776  30.512  23.700   6.508
 2122CHOL    R224777  30.777  23.925   6.503
 2122CHOL    R324778  30.538  23.662   6.083
 2122CHOL    R424779  30.827  23.853   6.206
 2122CHOL    R524780  30.872  23.694   6.537
 2122CHOL    R624781  30.810  23.611   6.081
 2122CHOL    C124782  30.762  23.777   5.768
 2122CHOL    C224783  30.709  23.781   5.345
 2123CHOL   ROH24784  24.668   3.387   3.455
 2123CHOL    R124785  24.293   3.310   3.655
 2123CHOL    R224786  24.596   3.145   3.695
 2123CHOL    R324787  24.133   3.095   3.987
 2123CHOL    R424788  24.495   3.033   3.966
 2123CHOL    R524789  24.606   3.359   3.829
 2123CHOL    R624790  24.343   3.155   4.157
 2123CHOL    C124791  24.238   2.835   4.277
 2123CHOL    C224792  23.965   2.710   4.585
 2124CHOL   ROH24793   3.557  17.361   4.190
 2124CHOL    R124794   3.820  17.674   4.329
 2124CHOL    R224795   3.703  17.398   4.505
 2124CHOL    R324796   4.084  17.767   4.652
 2124CHOL    R424797   3.932  17.437   4.710
 2124CHOL    R524798   3.895  17.323   4.359
 2124CHOL    R624799   4.191  17.513   4.668
 2124CHOL    C124800   4.212  17.625   5.007
 2124CHOL    C224801   4.570  17.839   5.218
 2125CHOL   ROH24802  26.068   0.740   7.215
 2125CHOL    R124803  25.903   0.826   6.826
 2125CHOL    R224804  26.234   0.762   6.910
 2125CHOL    R324805  26.005   0.811   6.411
 2125CHOL    R424806  26.293   0.698   6.612
 2125CHOL    R524807  26.113   0.541   6.895
 2125CHOL    R624808  26.137   0.568   6.429
 2125CHOL    C124809  26.314   0.731   6.164
 2125CHOL    C224810  26.325   0.687   5.719
 2126CHOL   ROH24811  27.754  17.122   6.785
 2126CHOL    R124812  27.678  16.985   6.383
 2126CHOL    R224813  27.745  17.309   6.491
 2126CHOL    R324814  27.707  17.116   5.977
 2126CHOL    R424815  27.819  17.387   6.200
 2126CHOL    R524816  27.964  17.185   6.475
 2126CHOL    R624817  27.952  17.241   6.011
 2126CHOL    C124818  27.801  17.439   5.754
 2126CHOL    C224819  27.769  17.302   5.338
 2127CHOL   ROH24820  17.040  19.478   7.307
 2127CHOL    R124821  16.802  19.668   7.001
 2127CHOL    R224822  17.113  19.515   6.968
 2127CHOL    R324823  16.776  19.705   6.576
 2127CHOL    R424824  17.065  19.494   6.663
 2127CHOL    R524825  16.937  19.334   6.971
 2127CHOL    R624826  16.835  19.439   6.527
 2127CHOL    C124827  16.968  19.601   6.237
 2127CHOL    C224828  16.818  19.764   5.835
 2128CHOL   ROH24829  12.401   6.802   7.116
 2128CHOL    R124830  12.546   7.059   6.801
 2128CHOL    R224831  12.427   6.733   6.775
 2128CHOL    R324832  12.556   7.088   6.374
 2128CHOL    R424833  12.384   6.777   6.471
 2128CHOL    R524834  12.228   6.887   6.788
 2128CHOL    R624835  12.296   6.999   6.340
 2128CHOL    C124836  12.456   6.885   6.041
 2128CHOL    C224837  12.624   6.887   5.651
 2129CHOL   ROH24838  22.477  22.988   3.937
 2129CHOL    R124839  22.370  23.323   4.187
 2129CHOL    R224840  22.412  22.990   4.279
 2129CHOL    R324841  22.336  23.431   4.600
 2129CHOL    R424842  22.441  23.080   4.575
 2129CHOL    R524843  22.641  23.095   4.263
 2129CHOL    R624844  22.567  23.299   4.677
 2129CHOL    C124845  22.364  23.277   4.971
 2129CHOL    C224846  22.369  23.369   5.384
 2130CHOL   ROH24847  33.270  17.539   5.694
 2130CHOL    R124848  33.386  17.128   5.753
 2130CHOL    R224849  33.480  17.343   5.497
 2130CHOL    R324850  33.669  16.839   5.614
 2130CHOL    R424851  33.719  17.156   5.433
 2130CHOL    R524852  33.622  17.396   5.698
 2130CHOL    R624853  33.880  17.018   5.604
 2130CHOL    C124854  33.962  16.790   5.341
 2130CHOL    C224855  34.277  16.498   5.379
 2131CHOL   ROH24856  23.430  28.335   6.669
 2131CHOL    R124857  23.090  28.164   6.465
 2131CHOL    R224858  23.383  28.292   6.326
 2131CHOL    R324859  22.973  28.018   6.081
 2131CHOL    R424860  23.320  28.138   6.064
 2131CHOL    R524861  23.431  28.058   6.408
 2131CHOL    R624862  23.213  27.889   6.031
 2131CHOL    C124863  23.105  27.981   5.702
 2131CHOL    C224864  22.772  27.927   5.391
 2132CHOL   ROH24865  20.018  33.030   7.329
 2132CHOL    R124866  20.252  33.128   6.980
 2132CHOL    R224867  19.936  32.985   6.993
 2132CHOL    R324868  20.215  33.169   6.556
 2132CHOL    R424869  19.891  33.065   6.697
 2132CHOL    R524870  19.910  33.233   7.027
 2132CHOL    R624871  19.968  33.293   6.567
 2132CHOL    C124872  19.951  33.118   6.255
 2132CHOL    C224873  19.905  33.046   5.790
 2133CHOL   ROH24874  33.419  16.469   5.674
 2133CHOL    R124875  33.503  16.546   6.090
 2133CHOL    R224876  33.314  16.288   5.952
 2133CHOL    R324877  33.476  16.358   6.474
 2133CHOL    R424878  33.343  16.130   6.217
 2133CHOL    R524879  33.557  16.226   5.931
 2133CHOL    R624880  33.559  16.110   6.384
 2133CHOL    C124881  33.341  16.024   6.654
 2133CHOL    C224882  33.434  15.891   7.041
 2134CHOL   ROH24883   1.297  33.345   4.127
 2134CHOL    R124884   1.143  33.425   4.521
 2134CHOL    R224885   1.475  33.417   4.418
 2134CHOL    R324886   1.266  33.579   4.901
 2134CHOL    R424887   1.553  33.578   4.672
 2134CHOL    R524888   1.378  33.641   4.351
 2134CHOL    R624889   1.420  33.782   4.795
 2134CHOL    C124890   1.592  33.708   5.100
 2134CHOL    C224891   1.720  33.843   5.506
 2135CHOL   ROH24892  16.770  33.413   6.605
 2135CHOL    R124893  16.843  33.345   6.185
 2135CHOL    R224894  16.565  33.252   6.373
 2135CHOL    R324895  16.640  33.224   5.828
 2135CHOL    R424896  16.404  33.218   6.111
 2135CHOL    R524897  16.541  33.496   6.313
 2135CHOL    R624898  16.410  33.368   5.883
 2135CHOL    C124899  16.283  33.090   5.697
 2135CHOL    C224900  16.224  33.047   5.265
 2136CHOL   ROH24901  23.988   5.395   6.822
 2136CHOL    R124902  24.084   5.358   6.403
 2136CHOL    R224903  23.789   5.476   6.547
 2136CHOL    R324904  23.944   5.482   6.019
 2136CHOL    R424905  23.717   5.612   6.278
 2136CHOL    R524906  23.960   5.662   6.554
 2136CHOL    R624907  23.880   5.739   6.099
 2136CHOL    C124908  23.641   5.679   5.840
 2136CHOL    C224909  23.655   5.579   5.410
 2137CHOL   ROH24910  13.120   4.425   7.152
 2137CHOL    R124911  13.210   4.185   6.805
 2137CHOL    R224912  13.053   4.495   6.817
 2137CHOL    R324913  13.227   4.210   6.379
 2137CHOL    R424914  13.116   4.533   6.516
 2137CHOL    R524915  13.302   4.533   6.836
 2137CHOL    R624916  13.339   4.463   6.375
 2137CHOL    C124917  13.148   4.461   6.073
 2137CHOL    C224918  13.069   4.321   5.677
 2138CHOL   ROH24919  14.132   2.044   6.775
 2138CHOL    R124920  14.247   2.246   6.411
 2138CHOL    R224921  14.081   1.942   6.445
 2138CHOL    R324922  14.177   2.235   5.990
 2138CHOL    R424923  13.986   1.965   6.151
 2138CHOL    R524924  13.912   2.127   6.476
 2138CHOL    R624925  13.906   2.186   6.013
 2138CHOL    C124926  13.987   2.022   5.706
 2138CHOL    C224927  14.126   1.996   5.301
 2139CHOL   ROH24928  12.001  28.634   6.924
 2139CHOL    R124929  12.275  28.634   6.591
 2139CHOL    R224930  11.944  28.529   6.596
 2139CHOL    R324931  12.281  28.590   6.166
 2139CHOL    R424932  11.936  28.551   6.287
 2139CHOL    R524933  11.946  28.780   6.578
 2139CHOL    R624934  12.051  28.737   6.124
 2139CHOL    C124935  12.042  28.504   5.853
 2139CHOL    C224936  12.063  28.468   5.405
 2140CHOL   ROH24937  35.006  21.479   4.556
 2140CHOL    R124938  35.119  21.197   4.862
 2140CHOL    R224939  35.048  21.536   4.898
 2140CHOL    R324940  35.133  21.158   5.288
 2140CHOL    R424941  35.005  21.492   5.201
 2140CHOL    R524942  34.829  21.411   4.885
 2140CHOL    R624943  34.889  21.281   5.330
 2140CHOL    C124944  35.069  21.365   5.628
 2140CHOL    C224945  35.240  21.235   6.009
 2141CHOL   ROH24946  10.741  36.009   6.593
 2141CHOL    R124947  10.513  36.006   6.227
 2141CHOL    R224948  10.857  36.042   6.266
 2141CHOL    R324949  10.566  35.977   5.804
 2141CHOL    R424950  10.895  35.965   5.968
 2141CHOL    R524951  10.801  35.796   6.284
 2141CHOL    R624952  10.760  35.781   5.818
 2141CHOL    C124953  10.852  35.956   5.521
 2141CHOL    C224954  10.871  36.081   5.108
 2142CHOL   ROH24955   3.919  21.159   7.097
 2142CHOL    R124956   3.958  20.995   6.700
 2142CHOL    R224957   3.708  21.203   6.823
 2142CHOL    R324958   3.799  21.039   6.306
 2142CHOL    R424959   3.631  21.276   6.532
 2142CHOL    R524960   3.908  21.346   6.767
 2142CHOL    R624961   3.792  21.315   6.315
 2142CHOL    C124962   3.517  21.239   6.098
 2142CHOL    C224963   3.319  21.080   5.737
 2143CHOL   ROH24964  17.380  17.877   5.755
 2143CHOL    R124965  17.170  17.874   5.378
 2143CHOL    R224966  17.498  17.974   5.441
 2143CHOL    R324967  17.242  17.909   4.958
 2143CHOL    R424968  17.561  17.945   5.139
 2143CHOL    R524969  17.495  17.722   5.427
 2143CHOL    R624970  17.473  17.757   4.962
 2143CHOL    C124971  17.536  17.984   4.692
 2143CHOL    C224972  17.509  18.089   4.273
 2144CHOL   ROH24973  26.026  10.538   4.002
 2144CHOL    R124974  26.211  10.578   4.389
 2144CHOL    R224975  26.101  10.830   4.177
 2144CHOL    R324976  26.282  10.868   4.695
 2144CHOL    R424977  26.101  11.027   4.416
 2144CHOL    R524978  25.901  10.739   4.299
 2144CHOL    R624979  26.030  10.983   4.676
 2144CHOL    C124980  26.232  11.260   4.777
 2144CHOL    C224981  26.284  11.575   5.101
 2145CHOL   ROH24982  26.204  25.902   6.806
 2145CHOL    R124983  26.239  25.680   6.437
 2145CHOL    R224984  26.079  25.984   6.491
 2145CHOL    R324985  26.181  25.725   6.016
 2145CHOL    R424986  26.088  26.038   6.186
 2145CHOL    R524987  26.326  26.029   6.469
 2145CHOL    R624988  26.285  25.981   6.006
 2145CHOL    C124989  26.045  25.986   5.741
 2145CHOL    C224990  26.162  26.068   5.339
 2146CHOL   ROH24991  28.326   8.659   7.483
 2146CHOL    R124992  28.461   8.462   7.124
 2146CHOL    R224993  28.172   8.650   7.169
 2146CHOL    R324994  28.384   8.448   6.703
 2146CHOL    R424995  28.150   8.684   6.862
 2146CHOL    R524996  28.365   8.810   7.136
 2146CHOL    R624997  28.348   8.721   6.677
 2146CHOL    C124998  28.133   8.592   6.423
 2146CHOL    C224999  28.203   8.597   6.007
 2147CHOL   ROH25000   9.964  18.897   3.632
 2147CHOL    R125001   9.865  18.985   4.042
 2147CHOL    R225002  10.149  19.079   3.865
 2147CHOL    R325003   9.986  19.236   4.367
 2147CHOL    R425004  10.204  19.298   4.077
 2147CHOL    R525005   9.963  19.237   3.803
 2147CHOL    R625006  10.027  19.459   4.209
 2147CHOL    C125007  10.266  19.506   4.471
 2147CHOL    C225008  10.245  19.887   4.659
 2148CHOL   ROH25009  30.780   6.668   6.963
 2148CHOL    R125010  30.584   6.823   6.612
 2148CHOL    R225011  30.924   6.825   6.687
 2148CHOL    R325012  30.672   6.964   6.217
 2148CHOL    R425013  30.986   6.874   6.387
 2148CHOL    R525014  30.865   6.596   6.600
 2148CHOL    R625015  30.863   6.771   6.166
 2148CHOL    C125016  30.981   7.048   5.973
 2148CHOL    C225017  31.105   7.169   5.583
 2149CHOL   ROH25018  22.260  34.177   3.877
 2149CHOL    R125019  22.472  34.089   4.242
 2149CHOL    R225020  22.179  34.272   4.203
 2149CHOL    R325021  22.422  34.103   4.667
 2149CHOL    R425022  22.118  34.233   4.504
 2149CHOL    R525023  22.119  34.027   4.196
 2149CHOL    R625024  22.160  34.014   4.662
 2149CHOL    C125025  22.163  34.225   4.951
 2149CHOL    C225026  22.096  34.223   5.375
 2150CHOL   ROH25027  15.235  15.303   6.867
 2150CHOL    R125028  15.058  15.529   6.546
 2150CHOL    R225029  15.275  15.258   6.524
 2150CHOL    R325030  14.997  15.513   6.123
 2150CHOL    R425031  15.185  15.215   6.230
 2150CHOL    R525032  15.042  15.169   6.568
 2150CHOL    R625033  14.938  15.243   6.119
 2150CHOL    C125034  15.088  15.292   5.798
 2150CHOL    C225035  15.151  15.316   5.357
 2151CHOL   ROH25036   6.755  20.155   3.488
 2151CHOL    R125037   6.756  20.357   3.869
 2151CHOL    R225038   6.608  20.053   3.787
 2151CHOL    R325039   6.667  20.288   4.281
 2151CHOL    R425040   6.594  19.983   4.089
 2151CHOL    R525041   6.853  20.012   3.826
 2151CHOL    R625042   6.776  20.034   4.286
 2151CHOL    C125043   6.516  20.010   4.530
 2151CHOL    C225044   6.466  19.935   4.968
 2152CHOL   ROH25045  11.945  33.456   4.361
 2152CHOL    R125046  11.999  33.612   4.759
 2152CHOL    R225047  11.815  33.750   4.498
 2152CHOL    R325048  11.841  33.908   5.024
 2152CHOL    R425049  11.663  33.925   4.703
 2152CHOL    R525050  11.676  33.568   4.604
 2152CHOL    R625051  11.577  33.862   4.954
 2152CHOL    C125052  11.574  34.210   5.039
 2152CHOL    C225053  11.656  34.434   5.424
 2153CHOL   ROH25054  24.903  24.344   3.859
 2153CHOL    R125055  24.899  24.031   4.156
 2153CHOL    R225056  24.931  24.374   4.205
 2153CHOL    R325057  24.864  23.976   4.579
 2153CHOL    R425058  24.852  24.335   4.502
 2153CHOL    R525059  24.687  24.323   4.171
 2153CHOL    R625060  24.667  24.167   4.611
 2153CHOL    C125061  24.838  24.182   4.924
 2153CHOL    C225062  24.856  24.019   5.330
 2154CHOL   ROH25063  32.726  34.598   7.003
 2154CHOL    R125064  32.917  34.789   6.667
 2154CHOL    R225065  32.709  34.510   6.666
 2154CHOL    R325066  32.907  34.797   6.240
 2154CHOL    R425067  32.660  34.552   6.363
 2154CHOL    R525068  32.563  34.716   6.681
 2154CHOL    R625069  32.630  34.785   6.223
 2154CHOL    C125070  32.731  34.617   5.924
 2154CHOL    C225071  32.726  34.595   5.467
 2155CHOL   ROH25072  11.359  32.433   6.944
 2155CHOL    R125073  11.705  32.469   6.689
 2155CHOL    R225074  11.378  32.388   6.598
 2155CHOL    R325075  11.811  32.496   6.275
 2155CHOL    R425076  11.446  32.462   6.305
 2155CHOL    R525077  11.392  32.638   6.626
 2155CHOL    R625078  11.602  32.664   6.209
 2155CHOL    C125079  11.651  32.481   5.906
 2155CHOL    C225080  11.835  32.347   5.543
 2156CHOL   ROH25081   1.632  18.839   4.038
 2156CHOL    R125082   1.902  18.749   4.362
 2156CHOL    R225083   1.571  18.856   4.381
 2156CHOL    R325084   1.903  18.681   4.785
 2156CHOL    R425085   1.559  18.755   4.674
 2156CHOL    R525086   1.570  18.609   4.334
 2156CHOL    R625087   1.670  18.531   4.784
 2156CHOL    C125088   1.660  18.685   5.106
 2156CHOL    C225089   1.621  18.516   5.487
 2157CHOL   ROH25090  27.719   6.459   6.962
 2157CHOL    R125091  27.487   6.344   6.617
 2157CHOL    R225092  27.710   6.609   6.647
 2157CHOL    R325093  27.457   6.418   6.197
 2157CHOL    R425094  27.728   6.624   6.338
 2157CHOL    R525095  27.844   6.398   6.608
 2157CHOL    R625096  27.731   6.421   6.155
 2157CHOL    C125097  27.614   6.647   5.904
 2157CHOL    C225098  27.459   6.693   5.511
 2158CHOL   ROH25099  31.434  34.117   3.710
 2158CHOL    R125100  31.684  34.356   3.968
 2158CHOL    R225101  31.388  34.192   4.048
 2158CHOL    R325102  31.744  34.447   4.381
 2158CHOL    R425103  31.462  34.212   4.348
 2158CHOL    R525104  31.574  34.022   4.051
 2158CHOL    R625105  31.706  34.187   4.468
 2158CHOL    C125106  31.588  34.377   4.747
 2158CHOL    C225107  31.701  34.705   5.010
 2159CHOL   ROH25108  34.707   2.701   3.755
 2159CHOL    R125109  34.655   2.892   4.138
 2159CHOL    R225110  34.448   2.658   3.984
 2159CHOL    R325111  34.422   2.861   4.496
 2159CHOL    R425112  34.318   2.599   4.259
 2159CHOL    R525113  34.640   2.534   4.090
 2159CHOL    R625114  34.434   2.584   4.506
 2159CHOL    C125115  34.117   2.653   4.658
 2159CHOL    C225116  33.862   2.761   5.025
 2160CHOL   ROH25117  29.745  29.444   6.770
 2160CHOL    R125118  29.746  29.321   6.357
 2160CHOL    R225119  29.934  29.573   6.507
 2160CHOL    R325120  29.972  29.369   5.997
 2160CHOL    R425121  30.128  29.566   6.266
 2160CHOL    R525122  30.046  29.352   6.557
 2160CHOL    R625123  30.219  29.352   6.122
 2160CHOL    C125124  30.289  29.569   5.846
 2160CHOL    C225125  30.113  29.787   5.534
 2161CHOL   ROH25126   1.341   5.935   5.171
 2161CHOL    R125127   1.503   5.707   5.500
 2161CHOL    R225128   1.496   5.622   5.163
 2161CHOL    R325129   1.753   5.369   5.578
 2161CHOL    R425130   1.718   5.413   5.214
 2161CHOL    R525131   1.688   5.781   5.199
 2161CHOL    R625132   1.935   5.428   5.379
 2161CHOL    C125133   1.950   5.071   5.391
 2161CHOL    C225134   2.055   4.668   5.560
 2162CHOL   ROH25135   8.982   8.083   6.368
 2162CHOL    R125136   9.079   8.183   5.960
 2162CHOL    R225137   8.992   7.872   6.091
 2162CHOL    R325138   9.057   8.021   5.565
 2162CHOL    R425139   8.924   7.775   5.804
 2162CHOL    R525140   8.780   8.004   6.056
 2162CHOL    R625141   8.806   7.910   5.599
 2162CHOL    C125142   8.956   7.685   5.365
 2162CHOL    C225143   9.184   7.771   5.013
 2163CHOL   ROH25144   5.947  12.206   3.897
 2163CHOL    R125145   6.065  12.060   4.285
 2163CHOL    R225146   6.128  12.372   4.144
 2163CHOL    R325147   6.221  12.198   4.658
 2163CHOL    R425148   6.188  12.483   4.427
 2163CHOL    R525149   5.892  12.373   4.234
 2163CHOL    R625150   6.066  12.427   4.665
 2163CHOL    C125151   6.360  12.530   4.840
 2163CHOL    C225152   6.479  12.525   5.280
 2164CHOL   ROH25153  11.651   9.105   6.740
 2164CHOL    R125154  11.453   9.078   6.358
 2164CHOL    R225155  11.758   9.228   6.432
 2164CHOL    R325156  11.528   9.136   5.941
 2164CHOL    R425157  11.832   9.219   6.131
 2164CHOL    R525158  11.797   8.980   6.412
 2164CHOL    R625159  11.781   9.024   5.947
 2164CHOL    C125160  11.811   9.265   5.685
 2164CHOL    C225161  11.858   9.229   5.249
 2165CHOL   ROH25162  29.040  19.152   6.857
 2165CHOL    R125163  28.868  19.209   6.465
 2165CHOL    R225164  29.156  19.033   6.551
 2165CHOL    R325165  28.897  19.060   6.065
 2165CHOL    R425166  29.141  18.885   6.278
 2165CHOL    R525167  28.956  18.886   6.599
 2165CHOL    R625168  28.923  18.795   6.142
 2165CHOL    C125169  29.110  18.805   5.837
 2165CHOL    C225170  28.979  18.712   5.421
 2166CHOL   ROH25171  31.032   4.427   3.801
 2166CHOL    R125172  30.734   4.552   4.087
 2166CHOL    R225173  31.020   4.363   4.144
 2166CHOL    R325174  30.668   4.579   4.508
 2166CHOL    R425175  30.999   4.430   4.446
 2166CHOL    R525176  31.088   4.605   4.132
 2166CHOL    R625177  30.925   4.664   4.566
 2166CHOL    C125178  30.837   4.483   4.862
 2166CHOL    C225179  30.626   4.530   5.233
 2167CHOL   ROH25180  10.599  33.287   3.756
 2167CHOL    R125181  10.849  33.291   4.108
 2167CHOL    R225182  10.508  33.225   4.086
 2167CHOL    R325183  10.844  33.174   4.519
 2167CHOL    R425184  10.520  33.091   4.365
 2167CHOL    R525185  10.632  33.016   4.020
 2167CHOL    R625186  10.716  32.933   4.472
 2167CHOL    C125187  10.602  33.017   4.801
 2167CHOL    C225188  10.528  32.961   5.224
 2168CHOL   ROH25189  17.435  15.071   6.780
 2168CHOL    R125190  17.294  14.877   6.422
 2168CHOL    R225191  17.486  15.166   6.448
 2168CHOL    R325192  17.353  14.878   5.998
 2168CHOL    R425193  17.570  15.132   6.152
 2168CHOL    R525194  17.639  14.967   6.476
 2168CHOL    R625195  17.628  14.903   6.013
 2168CHOL    C125196  17.553  15.071   5.707
 2168CHOL    C225197  17.465  15.130   5.286
 2169CHOL   ROH25198   5.813   8.116   4.498
 2169CHOL    R125199   5.844   8.199   4.920
 2169CHOL    R225200   5.566   8.235   4.714
 2169CHOL    R325201   5.599   8.279   5.261
 2169CHOL    R425202   5.385   8.238   4.965
 2169CHOL    R525203   5.586   7.992   4.776
 2169CHOL    R625204   5.405   8.093   5.195
 2169CHOL    C125205   5.215   8.342   5.368
 2169CHOL    C225206   5.066   8.353   5.766
 2170CHOL   ROH25207  35.631   4.566   4.575
 2170CHOL    R125208  35.599   4.479   4.997
 2170CHOL    R225209  35.786   4.728   4.842
 2170CHOL    R325210  35.691   4.648   5.379
 2170CHOL    R425211  35.804   4.877   5.114
 2170CHOL    R525212  35.547   4.808   4.856
 2170CHOL    R625213  35.615   4.905   5.308
 2170CHOL    C125214  35.873   4.965   5.549
 2170CHOL    C225215  36.024   4.704   5.871
 2171CHOL   ROH25216  26.806  27.697   6.645
 2171CHOL    R125217  26.574  27.464   6.366
 2171CHOL    R225218  26.759  27.752   6.304
 2171CHOL    R325219  26.511  27.416   5.946
 2171CHOL    R425220  26.757  27.683   6.002
 2171CHOL    R525221  26.918  27.557   6.310
 2171CHOL    R625222  26.779  27.440   5.880
 2171CHOL    C125223  26.616  27.573   5.590
 2171CHOL    C225224  26.382  27.598   5.243
 2172CHOL   ROH25225  23.634  32.411   4.254
 2172CHOL    R125226  23.619  32.002   4.390
 2172CHOL    R225227  23.733  32.282   4.562
 2172CHOL    R325228  23.653  31.770   4.748
 2172CHOL    R425229  23.703  32.126   4.828
 2172CHOL    R525230  23.481  32.279   4.575
 2172CHOL    R625231  23.510  31.948   4.904
 2172CHOL    C125232  23.736  31.804   5.141
 2172CHOL    C225233  23.695  31.601   5.545
 2173CHOL   ROH25234  25.973  22.306   3.796
 2173CHOL    R125235  25.969  22.650   4.057
 2173CHOL    R225236  25.830  22.336   4.113
 2173CHOL    R325237  25.883  22.759   4.461
 2173CHOL    R425238  25.821  22.399   4.416
 2173CHOL    R525239  26.078  22.322   4.161
 2173CHOL    R625240  26.001  22.534   4.571
 2173CHOL    C125241  25.743  22.607   4.807
 2173CHOL    C225242  25.876  22.776   5.207
 2174CHOL   ROH25243   5.844  10.689   3.971
 2174CHOL    R125244   5.722  10.571   4.368
 2174CHOL    R225245   5.994  10.457   4.184
 2174CHOL    R325246   5.866  10.359   4.710
 2174CHOL    R425247   6.122  10.351   4.446
 2174CHOL    R525248   6.057  10.679   4.286
 2174CHOL    R625249   6.122  10.463   4.695
 2174CHOL    C125250   6.179  10.140   4.838
 2174CHOL    C225251   6.209   9.955   5.241
 2175CHOL   ROH25252  26.121  14.350   7.270
 2175CHOL    R125253  26.345  14.182   6.941
 2175CHOL    R225254  26.039  14.347   6.931
 2175CHOL    R325255  26.359  14.185   6.514
 2175CHOL    R425256  26.079  14.395   6.627
 2175CHOL    R525257  26.220  14.521   6.946
 2175CHOL    R625258  26.308  14.456   6.491
 2175CHOL    C125259  26.162  14.326   6.191
 2175CHOL    C225260  26.216  14.303   5.764
 2176CHOL   ROH25261  19.703  10.159   7.200
 2176CHOL    R125262  19.358  10.324   7.001
 2176CHOL    R225263  19.595  10.103   6.873
 2176CHOL    R325264  19.121  10.271   6.649
 2176CHOL    R425265  19.396  10.026   6.648
 2176CHOL    R525266  19.431   9.971   7.013
 2176CHOL    R625267  19.125   9.995   6.660
 2176CHOL    C125268  19.104  10.056   6.308
 2176CHOL    C225269  19.042  10.210   5.905
 2177CHOL   ROH25270  28.643  27.884   4.911
 2177CHOL    R125271  28.937  28.118   5.123
 2177CHOL    R225272  28.596  28.179   5.091
 2177CHOL    R325273  28.966  28.436   5.407
 2177CHOL    R425274  28.611  28.370   5.335
 2177CHOL    R525275  28.627  28.005   5.271
 2177CHOL    R625276  28.757  28.346   5.564
 2177CHOL    C125277  28.739  28.700   5.612
 2177CHOL    C225278  28.965  28.774   6.003
 2178CHOL   ROH25279  16.610  32.365   6.866
 2178CHOL    R125280  16.817  32.154   6.552
 2178CHOL    R225281  16.481  32.245   6.565
 2178CHOL    R325282  16.766  32.031   6.145
 2178CHOL    R425283  16.463  32.207   6.258
 2178CHOL    R525284  16.614  32.447   6.495
 2178CHOL    R625285  16.646  32.267   6.065
 2178CHOL    C125286  16.494  32.027   5.848
 2178CHOL    C225287  16.487  31.886   5.437
 2179CHOL   ROH25288  32.267  16.887   6.650
 2179CHOL    R125289  32.323  16.977   6.232
 2179CHOL    R225290  32.564  16.884   6.466
 2179CHOL    R325291  32.615  16.941   5.921
 2179CHOL    R425292  32.755  16.808   6.235
 2179CHOL    R525293  32.445  16.675   6.390
 2179CHOL    R625294  32.698  16.688   5.996
 2179CHOL    C125295  32.996  16.827   5.856
 2179CHOL    C225296  32.988  16.678   5.444
 2180CHOL   ROH25297  20.894  21.457   4.158
 2180CHOL    R125298  21.006  21.499   4.572
 2180CHOL    R225299  20.689  21.441   4.440
 2180CHOL    R325300  20.852  21.435   4.966
 2180CHOL    R425301  20.596  21.342   4.719
 2180CHOL    R525302  20.813  21.221   4.445
 2180CHOL    R625303  20.730  21.194   4.904
 2180CHOL    C125304  20.517  21.323   5.161
 2180CHOL    C225305  20.363  21.360   5.560
 2181CHOL   ROH25306  24.288  14.062   7.243
 2181CHOL    R125307  24.266  14.316   6.895
 2181CHOL    R225308  24.386  13.990   6.916
 2181CHOL    R325309  24.297  14.299   6.468
 2181CHOL    R425310  24.355  13.963   6.608
 2181CHOL    R525311  24.134  13.980   6.905
 2181CHOL    R625312  24.159  14.060   6.445
 2181CHOL    C125313  24.383  14.045   6.167
 2181CHOL    C225314  24.547  14.104   5.791
 2182CHOL   ROH25315   6.382  19.163   6.814
 2182CHOL    R125316   6.171  19.410   6.530
 2182CHOL    R225317   6.323  19.101   6.476
 2182CHOL    R325318   6.000  19.393   6.138
 2182CHOL    R425319   6.155  19.068   6.217
 2182CHOL    R525320   6.098  19.060   6.583
 2182CHOL    R625321   5.895  19.139   6.169
 2182CHOL    C125322   5.964  19.149   5.819
 2182CHOL    C225323   5.813  19.045   5.438
 2183CHOL   ROH25324  33.651   9.550   6.581
 2183CHOL    R125325  33.859   9.556   6.203
 2183CHOL    R225326  33.558   9.399   6.281
 2183CHOL    R325327  33.799   9.464   5.790
 2183CHOL    R425328  33.493   9.383   5.979
 2183CHOL    R525329  33.511   9.644   6.241
 2183CHOL    R625330  33.542   9.565   5.781
 2183CHOL    C125331  33.528   9.304   5.538
 2183CHOL    C225332  33.536   9.244   5.095
 2184CHOL   ROH25333  11.921  18.957   3.791
 2184CHOL    R125334  11.969  19.106   4.193
 2184CHOL    R225335  11.736  19.205   3.954
 2184CHOL    R325336  11.767  19.343   4.486
 2184CHOL    R425337  11.564  19.330   4.179
 2184CHOL    R525338  11.654  18.991   4.059
 2184CHOL    R625339  11.517  19.238   4.432
 2184CHOL    C125340  11.438  19.571   4.537
 2184CHOL    C225341  11.403  19.893   4.849
 2185CHOL   ROH25342  29.938  33.131   6.721
 2185CHOL    R125343  29.977  33.185   6.294
 2185CHOL    R225344  30.059  32.905   6.484
 2185CHOL    R325345  30.047  32.961   5.937
 2185CHOL    R425346  30.055  32.733   6.226
 2185CHOL    R525347  29.809  32.903   6.446
 2185CHOL    R625348  29.887  32.748   6.011
 2185CHOL    C125349  30.134  32.589   5.808
 2185CHOL    C225350  30.191  32.461   5.397
 2186CHOL   ROH25351  11.676  16.624   7.361
 2186CHOL    R125352  11.482  16.624   6.976
 2186CHOL    R225353  11.822  16.605   7.045
 2186CHOL    R325354  11.562  16.545   6.563
 2186CHOL    R425355  11.870  16.495   6.759
 2186CHOL    R525356  11.723  16.376   7.077
 2186CHOL    R625357  11.718  16.322   6.613
 2186CHOL    C125358  11.862  16.449   6.312
 2186CHOL    C225359  11.752  16.381   5.938
 2187CHOL   ROH25360  32.806   4.729   6.876
 2187CHOL    R125361  32.682   4.626   6.476
 2187CHOL    R225362  32.755   4.941   6.604
 2187CHOL    R325363  32.657   4.793   6.083
 2187CHOL    R425364  32.790   5.047   6.315
 2187CHOL    R525365  32.973   4.827   6.549
 2187CHOL    R625366  32.901   4.923   6.098
 2187CHOL    C125367  32.713   5.138   5.881
 2187CHOL    C225368  32.724   5.279   5.465
 2188CHOL   ROH25369  21.426  13.952   6.556
 2188CHOL    R125370  21.135  14.113   6.281
 2188CHOL    R225371  21.447  13.977   6.209
 2188CHOL    R325372  21.046  14.128   5.863
 2188CHOL    R425373  21.358  13.939   5.914
 2188CHOL    R525374  21.285  13.787   6.244
 2188CHOL    R625375  21.115  13.864   5.815
 2188CHOL    C125376  21.194  14.020   5.504
 2188CHOL    C225377  21.080  14.077   5.098
 2189CHOL   ROH25378   8.214   3.972   6.593
 2189CHOL    R125379   8.346   4.177   6.237
 2189CHOL    R225380   8.089   3.945   6.269
 2189CHOL    R325381   8.225   4.255   5.835
 2189CHOL    R425382   7.972   4.044   5.999
 2189CHOL    R525383   8.002   4.168   6.347
 2189CHOL    R625384   7.959   4.297   5.899
 2189CHOL    C125385   7.936   4.164   5.568
 2189CHOL    C225386   7.944   4.201   5.107
 2190CHOL   ROH25387   2.483  22.043   4.028
 2190CHOL    R125388   2.312  21.744   4.288
 2190CHOL    R225389   2.448  22.053   4.375
 2190CHOL    R325390   2.174  21.694   4.689
 2190CHOL    R425391   2.301  22.037   4.647
 2190CHOL    R525392   2.213  22.092   4.291
 2190CHOL    R625393   2.051  21.941   4.703
 2190CHOL    C125394   2.150  21.887   5.042
 2190CHOL    C225395   2.428  21.762   5.361
 2191CHOL   ROH25396   0.986  33.314   6.904
 2191CHOL    R125397   1.288  33.107   6.675
 2191CHOL    R225398   0.998  33.260   6.560
 2191CHOL    R325399   1.417  33.049   6.272
 2191CHOL    R425400   1.120  33.266   6.275
 2191CHOL    R525401   1.171  33.440   6.597
 2191CHOL    R625402   1.377  33.313   6.197
 2191CHOL    C125403   1.316  33.137   5.892
 2191CHOL    C225404   1.443  32.886   5.582
 2192CHOL   ROH25405   8.425  19.990   6.903
 2192CHOL    R125406   8.637  19.937   6.530
 2192CHOL    R225407   8.293  19.940   6.584
 2192CHOL    R325408   8.570  19.935   6.108
 2192CHOL    R425409   8.251  19.994   6.281
 2192CHOL    R525410   8.373  20.179   6.577
 2192CHOL    R625411   8.396  20.151   6.111
 2192CHOL    C125412   8.276  19.960   5.834
 2192CHOL    C225413   8.402  19.836   5.453
 2193CHOL   ROH25414  15.113  29.031   4.024
 2193CHOL    R125415  15.129  28.849   4.415
 2193CHOL    R225416  15.184  29.182   4.330
 2193CHOL    R325417  15.142  28.955   4.830
 2193CHOL    R425418  15.138  29.261   4.626
 2193CHOL    R525419  14.935  29.144   4.340
 2193CHOL    R625420  14.959  29.161   4.806
 2193CHOL    C125421  15.167  29.274   5.075
 2193CHOL    C225422  15.151  29.204   5.495
 2194CHOL   ROH25423  12.497   4.962   3.953
 2194CHOL    R125424  12.825   4.940   4.232
 2194CHOL    R225425  12.507   5.071   4.284
 2194CHOL    R325426  12.910   4.984   4.649
 2194CHOL    R425427  12.553   5.050   4.590
 2194CHOL    R525428  12.493   4.820   4.306
 2194CHOL    R625429  12.680   4.856   4.733
 2194CHOL    C125430  12.737   5.089   4.998
 2194CHOL    C225431  13.018   5.252   5.285
 2195CHOL   ROH25432  35.155   1.243   3.799
 2195CHOL    R125433  35.346   0.870   3.902
 2195CHOL    R225434  35.272   1.139   4.110
 2195CHOL    R325435  35.459   0.638   4.243
 2195CHOL    R425436  35.302   0.952   4.355
 2195CHOL    R525437  35.061   1.004   4.079
 2195CHOL    R625438  35.227   0.691   4.384
 2195CHOL    C125439  35.467   0.651   4.646
 2195CHOL    C225440  35.547   0.263   4.866
 2196CHOL   ROH25441  30.615   9.090   3.683
 2196CHOL    R125442  30.652   8.804   4.004
 2196CHOL    R225443  30.625   9.150   4.026
 2196CHOL    R325444  30.612   8.774   4.428
 2196CHOL    R425445  30.543   9.120   4.324
 2196CHOL    R525446  30.394   9.056   3.991
 2196CHOL    R625447  30.385   8.931   4.441
 2196CHOL    C125448  30.540   8.998   4.756
 2196CHOL    C225449  30.539   8.992   5.208
 2197CHOL   ROH25450   3.416   1.933   6.985
 2197CHOL    R125451   3.181   1.903   6.624
 2197CHOL    R225452   3.519   1.980   6.655
 2197CHOL    R325453   3.226   1.879   6.200
 2197CHOL    R425454   3.558   1.908   6.356
 2197CHOL    R525455   3.494   1.729   6.673
 2197CHOL    R625456   3.443   1.709   6.209
 2197CHOL    C125457   3.506   1.894   5.910
 2197CHOL    C225458   3.396   1.748   5.505
 2198CHOL   ROH25459  23.136  32.374   6.956
 2198CHOL    R125460  23.023  32.572   6.589
 2198CHOL    R225461  23.247  32.308   6.632
 2198CHOL    R325462  23.051  32.525   6.165
 2198CHOL    R425463  23.221  32.243   6.330
 2198CHOL    R525464  23.013  32.214   6.634
 2198CHOL    R625465  23.001  32.253   6.169
 2198CHOL    C125466  23.213  32.287   5.883
 2198CHOL    C225467  23.134  32.436   5.490
 2199CHOL   ROH25468  29.898   0.771   3.547
 2199CHOL    R125469  30.007   1.066   3.842
 2199CHOL    R225470  29.849   0.760   3.892
 2199CHOL    R325471  30.045   1.114   4.265
 2199CHOL    R425472  29.927   0.773   4.192
 2199CHOL    R525473  30.096   0.717   3.867
 2199CHOL    R625474  30.158   0.865   4.307
 2199CHOL    C125475  29.982   0.920   4.613
 2199CHOL    C225476  30.325   0.981   4.861
 2200CHOL   ROH25477  31.207   6.330   3.858
 2200CHOL    R125478  31.076   5.982   4.078
 2200CHOL    R225479  31.350   6.188   4.142
 2200CHOL    R325480  31.142   5.781   4.450
 2200CHOL    R425481  31.360   6.077   4.432
 2200CHOL    R525482  31.144   6.302   4.232
 2200CHOL    R625483  31.154   6.013   4.600
 2200CHOL    C125484  31.371   5.795   4.781
 2200CHOL    C225485  31.300   5.436   4.995
 2201CHOL   ROH25486  34.856  14.003   3.951
 2201CHOL    R125487  35.121  13.978   4.291
 2201CHOL    R225488  34.773  13.987   4.290
 2201CHOL    R325489  35.116  13.894   4.710
 2201CHOL    R425490  34.773  13.873   4.578
 2201CHOL    R525491  34.845  13.751   4.236
 2201CHOL    R625492  34.936  13.685   4.689
 2201CHOL    C125493  34.863  13.815   5.014
 2201CHOL    C225494  34.964  13.634   5.382
 2202CHOL   ROH25495  18.826   6.640   3.851
 2202CHOL    R125496  18.851   6.679   4.280
 2202CHOL    R225497  18.812   6.388   4.093
 2202CHOL    R325498  18.906   6.443   4.633
 2202CHOL    R425499  18.906   6.223   4.338
 2202CHOL    R525500  19.056   6.452   4.089
 2202CHOL    R625501  19.100   6.280   4.521
 2202CHOL    C125502  18.942   6.060   4.755
 2202CHOL    C225503  19.127   5.962   5.152
 2203CHOL   ROH25504  22.780  15.094   7.193
 2203CHOL    R125505  23.021  15.160   6.841
 2203CHOL    R225506  22.675  15.132   6.862
 2203CHOL    R325507  22.986  15.276   6.431
 2203CHOL    R425508  22.651  15.268   6.585
 2203CHOL    R525509  22.739  15.366   6.931
 2203CHOL    R625510  22.797  15.473   6.480
 2203CHOL    C125511  22.710  15.365   6.150
 2203CHOL    C225512  22.880  15.253   5.763
 2204CHOL   ROH25513  35.436  31.232   4.853
 2204CHOL    R125514  35.236  30.899   5.039
 2204CHOL    R225515  35.298  31.214   5.173
 2204CHOL    R325516  34.992  30.805   5.378
 2204CHOL    R425517  35.079  31.163   5.386
 2204CHOL    R525518  35.096  31.231   5.022
 2204CHOL    R625519  34.839  31.035   5.360
 2204CHOL    C125520  34.837  30.970   5.711
 2204CHOL    C225521  34.582  30.714   5.973
 2205CHOL   ROH25522  32.782   3.572   6.798
 2205CHOL    R125523  32.849   3.230   6.544
 2205CHOL    R225524  32.665   3.517   6.475
 2205CHOL    R325525  32.806   3.105   6.137
 2205CHOL    R425526  32.682   3.450   6.173
 2205CHOL    R525527  32.909   3.571   6.440
 2205CHOL    R625528  32.891   3.346   6.030
 2205CHOL    C125529  32.662   3.230   5.782
 2205CHOL    C225530  32.683   3.098   5.372
 2206CHOL   ROH25531  29.178  14.020   5.016
 2206CHOL    R125532  29.063  14.395   4.838
 2206CHOL    R225533  28.968  14.266   5.147
 2206CHOL    R325534  28.877  14.767   4.938
 2206CHOL    R425535  28.885  14.551   5.236
 2206CHOL    R525536  29.199  14.366   5.171
 2206CHOL    R625537  29.004  14.791   5.183
 2206CHOL    C125538  28.693  14.957   5.242
 2206CHOL    C225539  28.614  15.374   5.196
 2207CHOL   ROH25540   5.679   9.470   6.994
 2207CHOL    R125541   5.682   9.073   6.825
 2207CHOL    R225542   5.496   9.349   6.723
 2207CHOL    R325543   5.554   8.860   6.478
 2207CHOL    R425544   5.451   9.212   6.449
 2207CHOL    R525545   5.730   9.374   6.630
 2207CHOL    R625546   5.623   9.060   6.300
 2207CHOL    C125547   5.345   8.907   6.136
 2207CHOL    C225548   5.475   8.589   5.903
 2208CHOL   ROH25549  32.927  35.947   3.767
 2208CHOL    R125550  33.323  36.096   3.852
 2208CHOL    R225551  33.117  35.904   4.056
 2208CHOL    R325552  33.644  36.047   4.130
 2208CHOL    R425553  33.365  35.826   4.225
 2208CHOL    R525554  33.228  35.750   3.889
 2208CHOL    R625555  33.620  35.771   4.144
 2208CHOL    C125556  33.740  35.852   4.470
 2208CHOL    C225557  33.884  36.022   4.844
 2209CHOL   ROH25558  28.717  23.920   3.988
 2209CHOL    R125559  28.413  23.624   4.062
 2209CHOL    R225560  28.656  23.742   4.281
 2209CHOL    R325561  28.228  23.411   4.384
 2209CHOL    R425562  28.490  23.632   4.519
 2209CHOL    R525563  28.469  23.910   4.275
 2209CHOL    R625564  28.219  23.630   4.554
 2209CHOL    C125565  28.252  23.357   4.783
 2209CHOL    C225566  28.013  23.040   4.981
 2210CHOL   ROH25567  26.016   5.969   6.773
 2210CHOL    R125568  25.902   5.848   6.375
 2210CHOL    R225569  25.974   6.168   6.490
 2210CHOL    R325570  25.887   5.996   5.974
 2210CHOL    R425571  26.016   6.260   6.197
 2210CHOL    R525572  26.193   6.050   6.446
 2210CHOL    R625573  26.131   6.126   5.989
 2210CHOL    C125574  25.951   6.331   5.758
 2210CHOL    C225575  25.869   6.485   5.371
 2211CHOL   ROH25576   1.082  19.925   7.129
 2211CHOL    R125577   1.472  19.949   6.947
 2211CHOL    R225578   1.168  20.057   6.817
 2211CHOL    R325579   1.676  20.138   6.622
 2211CHOL    R425580   1.321  20.236   6.617
 2211CHOL    R525581   1.250  20.232   6.980
 2211CHOL    R625582   1.549  20.381   6.654
 2211CHOL    C125583   1.611  20.373   6.301
 2211CHOL    C225584   1.809  20.261   5.931
 2212CHOL   ROH25585  10.478   7.176   6.810
 2212CHOL    R125586  10.787   7.198   6.510
 2212CHOL    R225587  10.450   7.125   6.466
 2212CHOL    R325588  10.837   7.215   6.085
 2212CHOL    R425589  10.479   7.192   6.165
 2212CHOL    R525590  10.473   7.375   6.486
 2212CHOL    R625591  10.625   7.388   6.044
 2212CHOL    C125592  10.629   7.199   5.741
 2212CHOL    C225593  10.889   7.248   5.397
 2213CHOL   ROH25594   6.624  30.130   6.694
 2213CHOL    R125595   6.808  30.361   6.380
 2213CHOL    R225596   6.568  30.111   6.351
 2213CHOL    R325597   6.763  30.452   5.965
 2213CHOL    R425598   6.500  30.215   6.067
 2213CHOL    R525599   6.451  30.324   6.417
 2213CHOL    R625600   6.487  30.472   5.976
 2213CHOL    C125601   6.541  30.356   5.642
 2213CHOL    C225602   6.735  30.396   5.268
 2214CHOL   ROH25603  18.160   6.822   6.947
 2214CHOL    R125604  17.821   6.728   6.696
 2214CHOL    R225605  18.144   6.814   6.598
 2214CHOL    R325606  17.725   6.634   6.290
 2214CHOL    R425607  18.087   6.694   6.318
 2214CHOL    R525608  18.144   6.570   6.663
 2214CHOL    R625609  17.945   6.470   6.252
 2214CHOL    C125610  17.891   6.603   5.924
 2214CHOL    C225611  17.634   6.679   5.605
 2215CHOL   ROH25612   8.231  12.960   7.355
 2215CHOL    R125613   7.965  13.075   7.037
 2215CHOL    R225614   8.312  13.068   7.034
 2215CHOL    R325615   7.964  13.154   6.616
 2215CHOL    R425616   8.306  13.070   6.724
 2215CHOL    R525617   8.229  12.832   6.998
 2215CHOL    R625618   8.133  12.944   6.554
 2215CHOL    C125619   8.211  13.183   6.299
 2215CHOL    C225620   8.066  13.381   5.944
 2216CHOL   ROH25621  33.506   3.515   6.437
 2216CHOL    R125622  33.239   3.600   6.109
 2216CHOL    R225623  33.543   3.752   6.183
 2216CHOL    R325624  33.227   3.810   5.737
 2216CHOL    R425625  33.557   3.858   5.893
 2216CHOL    R525626  33.592   3.533   6.067
 2216CHOL    R625627  33.482   3.736   5.660
 2216CHOL    C125628  33.447   4.056   5.505
 2216CHOL    C225629  33.336   4.169   5.076
 2217CHOL   ROH25630  31.620  27.437   6.678
 2217CHOL    R125631  31.653  27.679   6.322
 2217CHOL    R225632  31.696  27.335   6.353
 2217CHOL    R325633  31.676  27.642   5.896
 2217CHOL    R425634  31.658  27.306   6.047
 2217CHOL    R525635  31.449  27.382   6.343
 2217CHOL    R625636  31.487  27.440   5.881
 2217CHOL    C125637  31.700  27.366   5.603
 2217CHOL    C225638  31.716  27.464   5.198
 2218CHOL   ROH25639   3.581  30.590   6.928
 2218CHOL    R125640   3.623  30.480   6.513
 2218CHOL    R225641   3.490  30.773   6.645
 2218CHOL    R325642   3.603  30.650   6.121
 2218CHOL    R425643   3.528  30.910   6.370
 2218CHOL    R525644   3.741  30.793   6.649
 2218CHOL    R625645   3.732  30.885   6.191
 2218CHOL    C125646   3.514  30.993   5.929
 2218CHOL    C225647   3.521  31.206   5.544
 2219CHOL   ROH25648  28.447   1.366   4.754
 2219CHOL    R125649  28.733   1.382   5.076
 2219CHOL    R225650  28.676   1.619   4.828
 2219CHOL    R325651  28.993   1.656   5.276
 2219CHOL    R425652  28.820   1.831   5.002
 2219CHOL    R525653  28.498   1.647   5.005
 2219CHOL    R625654  28.813   1.866   5.273
 2219CHOL    C125655  29.126   2.036   5.258
 2219CHOL    C225656  29.361   2.214   5.539
 2220CHOL   ROH25657  27.204  30.672   6.762
 2220CHOL    R125658  27.376  30.821   6.395
 2220CHOL    R225659  27.107  30.604   6.434
 2220CHOL    R325660  27.293  30.847   5.977
 2220CHOL    R425661  27.018  30.669   6.144
 2220CHOL    R525662  27.024  30.839   6.473
 2220CHOL    R625663  27.025  30.906   6.010
 2220CHOL    C125664  27.026  30.730   5.699
 2220CHOL    C225665  27.044  30.812   5.256
 2221CHOL   ROH25666  34.319  34.198   5.369
 2221CHOL    R125667  33.952  34.015   5.505
 2221CHOL    R225668  33.993  34.263   5.264
 2221CHOL    R325669  33.539  33.982   5.400
 2221CHOL    R425670  33.710  34.197   5.155
 2221CHOL    R525671  34.046  34.041   5.157
 2221CHOL    R625672  33.587  33.955   5.128
 2221CHOL    C125673  33.269  34.117   5.133
 2221CHOL    C225674  32.829  34.091   5.177
 2222CHOL   ROH25675  15.762   8.757   7.298
 2222CHOL    R125676  15.785   8.379   7.092
 2222CHOL    R225677  15.756   8.698   6.955
 2222CHOL    R325678  15.846   8.218   6.701
 2222CHOL    R425679  15.854   8.585   6.683
 2222CHOL    R525680  15.998   8.661   7.016
 2222CHOL    R625681  16.046   8.397   6.633
 2222CHOL    C125682  15.894   8.329   6.316
 2222CHOL    C225683  15.955   8.071   5.960
 2223CHOL   ROH25684  16.581  20.957   4.712
 2223CHOL    R125685  16.806  20.729   5.001
 2223CHOL    R225686  16.735  21.070   5.004
 2223CHOL    R325687  16.967  20.761   5.396
 2223CHOL    R425688  16.801  21.077   5.307
 2223CHOL    R525689  16.531  20.947   5.089
 2223CHOL    R625690  16.746  20.892   5.500
 2223CHOL    C125691  17.013  21.022   5.699
 2223CHOL    C225692  17.293  20.806   5.978
 2224CHOL   ROH25693  26.044  21.812   3.760
 2224CHOL    R125694  25.880  21.687   4.139
 2224CHOL    R225695  26.184  21.844   4.078
 2224CHOL    R325696  25.940  21.737   4.559
 2224CHOL    R425697  26.198  21.926   4.376
 2224CHOL    R525698  26.004  22.020   4.075
 2224CHOL    R625699  25.997  22.008   4.542
 2224CHOL    C125700  26.191  21.908   4.825
 2224CHOL    C225701  26.153  21.954   5.249
 2225CHOL   ROH25702  27.519   9.824   4.114
 2225CHOL    R125703  27.634   9.965   4.505
 2225CHOL    R225704  27.330   9.826   4.407
 2225CHOL    R325705  27.507   9.952   4.914
 2225CHOL    R425706  27.265   9.768   4.705
 2225CHOL    R525707  27.494   9.638   4.444
 2225CHOL    R625708  27.431   9.686   4.905
 2225CHOL    C125709  27.205   9.821   5.147
 2225CHOL    C225710  27.283   9.812   5.563
 2226CHOL   ROH25711  33.785  29.478   4.162
 2226CHOL    R125712  33.974  29.233   4.463
 2226CHOL    R225713  33.882  29.568   4.485
 2226CHOL    R325714  34.066  29.232   4.881
 2226CHOL    R425715  33.897  29.547   4.794
 2226CHOL    R525716  33.675  29.428   4.523
 2226CHOL    R625717  33.824  29.341   4.958
 2226CHOL    C125718  34.046  29.464   5.210
 2226CHOL    C225719  34.276  29.508   5.602
 2227CHOL   ROH25720   4.014  35.778   3.797
 2227CHOL    R125721   4.174  35.912   4.174
 2227CHOL    R225722   3.997  35.620   4.107
 2227CHOL    R325723   4.257  35.770   4.569
 2227CHOL    R425724   4.105  35.499   4.371
 2227CHOL    R525725   4.237  35.584   4.036
 2227CHOL    R625726   4.352  35.524   4.485
 2227CHOL    C125727   4.212  35.446   4.805
 2227CHOL    C225728   4.178  35.477   5.222
 2228CHOL   ROH25729  14.643  32.647   4.088
 2228CHOL    R125730  14.747  32.841   4.460
 2228CHOL    R225731  14.558  32.552   4.413
 2228CHOL    R325732  14.746  32.771   4.882
 2228CHOL    R425733  14.607  32.477   4.710
 2228CHOL    R525734  14.802  32.490   4.396
 2228CHOL    R625735  14.831  32.509   4.862
 2228CHOL    C125736  14.631  32.501   5.158
 2228CHOL    C225737  14.467  32.655   5.546
 2229CHOL   ROH25738  33.945  28.688   4.075
 2229CHOL    R125739  34.272  28.892   4.268
 2229CHOL    R225740  33.975  28.780   4.410
 2229CHOL    R325741  34.422  28.984   4.658
 2229CHOL    R425742  34.107  28.797   4.690
 2229CHOL    R525743  34.130  28.583   4.389
 2229CHOL    R625744  34.362  28.736   4.765
 2229CHOL    C125745  34.329  28.951   5.049
 2229CHOL    C225746  34.496  29.089   5.423
 2230CHOL   ROH25747   7.738  19.183   3.619
 2230CHOL    R125748   7.975  18.986   3.921
 2230CHOL    R225749   7.715  19.212   3.966
 2230CHOL    R325750   7.982  18.911   4.342
 2230CHOL    R425751   7.687  19.115   4.259
 2230CHOL    R525752   7.614  18.986   3.919
 2230CHOL    R625753   7.710  18.863   4.360
 2230CHOL    C125754   7.784  19.000   4.682
 2230CHOL    C225755   7.899  18.959   5.099
 2231CHOL   ROH25756  24.470  23.259   7.079
 2231CHOL    R125757  24.148  23.181   6.802
 2231CHOL    R225758  24.479  23.263   6.730
 2231CHOL    R325759  24.079  23.103   6.387
 2231CHOL    R425760  24.439  23.154   6.443
 2231CHOL    R525761  24.470  23.017   6.785
 2231CHOL    R625762  24.298  22.936   6.358
 2231CHOL    C125763  24.270  23.082   6.033
 2231CHOL    C225764  24.011  22.897   5.728
 2232CHOL   ROH25765   4.333   4.883   6.856
 2232CHOL    R125766   4.437   4.960   6.444
 2232CHOL    R225767   4.262   4.689   6.575
 2232CHOL    R325768   4.346   4.826   6.048
 2232CHOL    R425769   4.154   4.627   6.291
 2232CHOL    R525770   4.102   4.883   6.554
 2232CHOL    R625771   4.074   4.800   6.095
 2232CHOL    C125772   4.134   4.547   5.850
 2232CHOL    C225773   4.411   4.488   5.515
 2233CHOL   ROH25774  10.486  31.546   7.005
 2233CHOL    R125775  10.715  31.634   6.650
 2233CHOL    R225776  10.429  31.437   6.679
 2233CHOL    R325777  10.691  31.604   6.224
 2233CHOL    R425778  10.385  31.464   6.373
 2233CHOL    R525779  10.357  31.679   6.673
 2233CHOL    R625780  10.425  31.679   6.211
 2233CHOL    C125781  10.457  31.461   5.929
 2233CHOL    C225782  10.506  31.550   5.491
 2234CHOL   ROH25783  26.789  15.988   7.274
 2234CHOL    R125784  26.748  16.216   6.910
 2234CHOL    R225785  26.689  15.877   6.959
 2234CHOL    R325786  26.582  16.188   6.517
 2234CHOL    R425787  26.522  15.873   6.698
 2234CHOL    R525788  26.488  16.004   7.043
 2234CHOL    R625789  26.350  16.061   6.599
 2234CHOL    C125790  26.396  15.929   6.270
 2234CHOL    C225791  26.216  16.096   5.902
 2235CHOL   ROH25792  16.835  13.087   6.786
 2235CHOL    R125793  16.717  12.877   6.428
 2235CHOL    R225794  16.913  13.164   6.455
 2235CHOL    R325795  16.808  12.857   6.011
 2235CHOL    R425796  17.019  13.114   6.168
 2235CHOL    R525797  17.059  12.965   6.504
 2235CHOL    R625798  17.081  12.878   6.046
 2235CHOL    C125799  17.034  13.032   5.726
 2235CHOL    C225800  16.944  12.947   5.320
 2236CHOL   ROH25801   1.041  11.395   7.516
 2236CHOL    R125802   0.907  11.297   7.118
 2236CHOL    R225803   1.234  11.336   7.232
 2236CHOL    R325804   1.056  11.152   6.745
 2236CHOL    R425805   1.334  11.180   6.984
 2236CHOL    R525806   1.155  11.106   7.299
 2236CHOL    R625807   1.225  10.964   6.859
 2236CHOL    C125808   1.399  11.050   6.559
 2236CHOL    C225809   1.514  10.951   6.164
 2237CHOL   ROH25810   9.769   3.042   6.724
 2237CHOL    R125811   9.684   3.191   6.328
 2237CHOL    R225812   9.868   2.910   6.417
 2237CHOL    R325813   9.703   3.073   5.918
 2237CHOL    R425814   9.833   2.801   6.128
 2237CHOL    R525815   9.623   2.850   6.430
 2237CHOL    R625816   9.615   2.815   5.964
 2237CHOL    C125817   9.829   2.773   5.680
 2237CHOL    C225818   9.986   2.874   5.286
 2238CHOL   ROH25819  17.665  10.132   7.332
 2238CHOL    R125820  17.621  10.414   7.009
 2238CHOL    R225821  17.772  10.101   7.002
 2238CHOL    R325822  17.658  10.440   6.583
 2238CHOL    R425823  17.747  10.100   6.693
 2238CHOL    R525824  17.523  10.067   6.985
 2238CHOL    R625825  17.544  10.192   6.535
 2238CHOL    C125826  17.772  10.225   6.262
 2238CHOL    C225827  17.586  10.401   5.897
 2239CHOL   ROH25828   0.452   6.463   6.856
 2239CHOL    R125829   0.326   6.272   6.491
 2239CHOL    R225830   0.422   6.603   6.538
 2239CHOL    R325831   0.320   6.336   6.068
 2239CHOL    R425832   0.469   6.629   6.233
 2239CHOL    R525833   0.631   6.463   6.521
 2239CHOL    R625834   0.573   6.447   6.058
 2239CHOL    C125835   0.406   6.613   5.788
 2239CHOL    C225836   0.523   6.445   5.392
 2240CHOL   ROH25837  12.459   5.502   4.638
 2240CHOL    R125838  12.155   5.197   4.652
 2240CHOL    R225839  12.340   5.328   4.915
 2240CHOL    R325840  11.911   4.984   4.931
 2240CHOL    R425841  12.129   5.217   5.113
 2240CHOL    R525842  12.154   5.489   4.863
 2240CHOL    R625843  11.858   5.205   5.088
 2240CHOL    C125844  11.848   4.939   5.326
 2240CHOL    C225845  11.528   4.679   5.454
 2241CHOL   ROH25846  12.485  25.468   3.624
 2241CHOL    R125847  12.170  25.434   3.917
 2241CHOL    R225848  12.514  25.427   3.969
 2241CHOL    R325849  12.107  25.446   4.340
 2241CHOL    R425850  12.466  25.491   4.269
 2241CHOL    R525851  12.444  25.668   3.945
 2241CHOL    R625852  12.282  25.657   4.383
 2241CHOL    C125853  12.307  25.473   4.689
 2241CHOL    C225854  12.147  25.241   5.002
 2242CHOL   ROH25855  30.220  24.694   4.646
 2242CHOL    R125856  29.859  24.587   4.856
 2242CHOL    R225857  30.171  24.667   4.990
 2242CHOL    R325858  29.692  24.589   5.250
 2242CHOL    R425859  30.035  24.721   5.263
 2242CHOL    R525860  30.054  24.882   4.931
 2242CHOL    R625861  29.794  24.837   5.317
 2242CHOL    C125862  29.785  24.671   5.633
 2242CHOL    C225863  29.623  24.572   6.036
 2243CHOL   ROH25864  21.759  19.390   4.233
 2243CHOL    R125865  21.615  19.674   4.524
 2243CHOL    R225866  21.433  19.503   4.282
 2243CHOL    R325867  21.251  19.819   4.695
 2243CHOL    R425868  21.173  19.565   4.440
 2243CHOL    R525869  21.470  19.347   4.477
 2243CHOL    R625870  21.132  19.570   4.710
 2243CHOL    C125871  20.850  19.785   4.662
 2243CHOL    C225872  20.578  19.992   4.923
 2244CHOL   ROH25873  30.943  22.166   5.327
 2244CHOL    R125874  31.168  22.371   5.633
 2244CHOL    R225875  31.264  22.095   5.443
 2244CHOL    R325876  31.565  22.400   5.789
 2244CHOL    R425877  31.560  22.153   5.516
 2244CHOL    R525878  31.297  22.302   5.302
 2244CHOL    R625879  31.688  22.393   5.541
 2244CHOL    C125880  31.933  22.239   5.751
 2244CHOL    C225881  32.166  22.125   6.094
 2245CHOL   ROH25882  18.619  20.154   4.095
 2245CHOL    R125883  18.519  19.925   4.447
 2245CHOL    R225884  18.742  20.191   4.420
 2245CHOL    R325885  18.563  19.934   4.872
 2245CHOL    R425886  18.728  20.229   4.727
 2245CHOL    R525887  18.508  20.286   4.434
 2245CHOL    R625888  18.514  20.205   4.895
 2245CHOL    C125889  18.736  20.146   5.168
 2245CHOL    C225890  18.835  20.014   5.561
 2246CHOL   ROH25891  26.846  24.006   6.808
 2246CHOL    R125892  27.051  24.176   6.469
 2246CHOL    R225893  26.900  23.864   6.494
 2246CHOL    R325894  27.110  24.113   6.050
 2246CHOL    R425895  26.895  23.846   6.185
 2246CHOL    R525896  26.720  24.034   6.450
 2246CHOL    R625897  26.847  24.041   6.001
 2246CHOL    C125898  27.024  23.852   5.754
 2246CHOL    C225899  27.026  23.867   5.326
 2247CHOL   ROH25900  32.774  27.136   5.456
 2247CHOL    R125901  32.391  27.289   5.584
 2247CHOL    R225902  32.609  27.425   5.349
 2247CHOL    R325903  32.095  27.578   5.474
 2247CHOL    R425904  32.376  27.594   5.236
 2247CHOL    R525905  32.480  27.239   5.237
 2247CHOL    R625906  32.113  27.526   5.202
 2247CHOL    C125907  32.024  27.873   5.208
 2247CHOL    C225908  31.730  28.169   5.316
 2248CHOL   ROH25909  19.366  31.722   4.957
 2248CHOL    R125910  19.527  31.760   5.355
 2248CHOL    R225911  19.290  31.961   5.199
 2248CHOL    R325912  19.455  31.965   5.724
 2248CHOL    R425913  19.202  32.068   5.477
 2248CHOL    R525914  19.173  31.754   5.282
 2248CHOL    R625915  19.180  31.934   5.714
 2248CHOL    C125916  19.215  32.243   5.890
 2248CHOL    C225917  19.386  32.342   6.292
 2249CHOL   ROH25918  26.069  15.037   4.024
 2249CHOL    R125919  26.349  14.909   4.327
 2249CHOL    R225920  26.119  15.169   4.343
 2249CHOL    R325921  26.435  14.959   4.743
 2249CHOL    R425922  26.143  15.165   4.652
 2249CHOL    R525923  25.996  14.953   4.387
 2249CHOL    R625924  26.169  14.953   4.821
 2249CHOL    C125925  26.316  15.167   5.067
 2249CHOL    C225926  26.472  15.190   5.457
 2250CHOL   ROH25927  13.427  19.561   4.042
 2250CHOL    R125928  13.576  19.532   4.446
 2250CHOL    R225929  13.291  19.698   4.333
 2250CHOL    R325930  13.455  19.605   4.850
 2250CHOL    R425931  13.182  19.700   4.623
 2250CHOL    R525932  13.236  19.453   4.353
 2250CHOL    R625933  13.199  19.508   4.816
 2250CHOL    C125934  13.152  19.757   5.068
 2250CHOL    C225935  13.205  19.941   5.447
 2251CHOL   ROH25936  32.220   6.507   6.703
 2251CHOL    R125937  32.249   6.805   6.392
 2251CHOL    R225938  32.347   6.472   6.380
 2251CHOL    R325939  32.324   6.841   5.973
 2251CHOL    R425940  32.348   6.487   6.071
 2251CHOL    R525941  32.098   6.481   6.344
 2251CHOL    R625942  32.176   6.617   5.904
 2251CHOL    C125943  32.427   6.622   5.650
 2251CHOL    C225944  32.395   6.763   5.240
 2252CHOL   ROH25945  16.027  26.088   5.392
 2252CHOL    R125946  16.457  26.113   5.424
 2252CHOL    R225947  16.246  26.292   5.213
 2252CHOL    R325948  16.784  26.360   5.304
 2252CHOL    R425949  16.471  26.501   5.171
 2252CHOL    R525950  16.238  26.400   5.441
 2252CHOL    R625951  16.652  26.599   5.351
 2252CHOL    C125952  16.871  26.685   5.082
 2252CHOL    C225953  17.298  26.860   5.151
 2253CHOL   ROH25954  12.253  28.065   6.867
 2253CHOL    R125955  12.300  27.793   6.536
 2253CHOL    R225956  12.143  28.104   6.539
 2253CHOL    R325957  12.261  27.779   6.110
 2253CHOL    R425958  12.166  28.114   6.230
 2253CHOL    R525959  12.392  28.142   6.522
 2253CHOL    R625960  12.370  28.030   6.069
 2253CHOL    C125961  12.141  28.001   5.796
 2253CHOL    C225962  12.254  27.973   5.397
 2254CHOL   ROH25963  11.736   3.241   3.605
 2254CHOL    R125964  11.982   3.182   3.955
 2254CHOL    R225965  11.724   3.411   3.909
 2254CHOL    R325966  12.001   3.287   4.369
 2254CHOL    R425967  11.704   3.443   4.217
 2254CHOL    R525968  11.621   3.187   3.963
 2254CHOL    R625969  11.729   3.255   4.413
 2254CHOL    C125970  11.813   3.511   4.647
 2254CHOL    C225971  12.002   3.494   5.015
 2255CHOL   ROH25972  10.783  31.164   6.774
 2255CHOL    R125973  10.484  31.016   6.501
 2255CHOL    R225974  10.780  31.183   6.426
 2255CHOL    R325975  10.426  30.936   6.084
 2255CHOL    R425976  10.762  31.077   6.135
 2255CHOL    R525977  10.836  30.941   6.472
 2255CHOL    R625978  10.679  30.833   6.045
 2255CHOL    C125979  10.606  30.977   5.726
 2255CHOL    C225980  10.286  31.112   5.480
 2256CHOL   ROH25981  24.868   1.663   4.239
 2256CHOL    R125982  24.719   1.728   4.638
 2256CHOL    R225983  24.664   1.455   4.431
 2256CHOL    R325984  24.531   1.520   4.961
 2256CHOL    R425985  24.580   1.289   4.678
 2256CHOL    R525986  24.892   1.428   4.536
 2256CHOL    R625987  24.683   1.290   4.931
 2256CHOL    C125988  24.374   1.161   5.057
 2256CHOL    C225989  24.237   1.054   5.468
 2257CHOL   ROH25990   5.882  31.422   7.172
 2257CHOL    R125991   6.065  31.649   6.855
 2257CHOL    R225992   5.873  31.360   6.829
 2257CHOL    R325993   6.059  31.690   6.429
 2257CHOL    R425994   5.825  31.424   6.530
 2257CHOL    R525995   5.717  31.556   6.858
 2257CHOL    R625996   5.784  31.665   6.408
 2257CHOL    C125997   5.897  31.527   6.098
 2257CHOL    C225998   6.019  31.583   5.683
 2258CHOL   ROH25999  26.690  22.555   6.947
 2258CHOL    R126000  26.552  22.383   6.576
 2258CHOL    R226001  26.729  22.679   6.623
 2258CHOL    R326002  26.602  22.422   6.153
 2258CHOL    R426003  26.809  22.674   6.324
 2258CHOL    R526004  26.893  22.488   6.633
 2258CHOL    R626005  26.876  22.462   6.166
 2258CHOL    C126006  26.786  22.650   5.876
 2258CHOL    C226007  26.688  22.510   5.470
 2259CHOL   ROH26008  18.220   0.280   3.810
 2259CHOL    R126009  18.207   0.257   4.241
 2259CHOL    R226010  18.037   0.061   4.010
 2259CHOL    R326011  18.075   0.000   4.556
 2259CHOL    R426012  17.989  -0.151   4.231
 2259CHOL    R526013  18.273  -0.027   4.028
 2259CHOL    R626014  18.156  -0.233   4.431
 2259CHOL    C126015  17.874  -0.344   4.620
 2259CHOL    C226016  17.586  -0.351   4.938
 2260CHOL   ROH26017  25.325  35.393   3.880
 2260CHOL    R126018  25.141  35.024   4.008
 2260CHOL    R226019  25.326  35.249   4.198
 2260CHOL    R326020  25.038  34.811   4.364
 2260CHOL    R426021  25.205  35.126   4.455
 2260CHOL    R526022  25.092  35.340   4.176
 2260CHOL    R626023  24.952  35.035   4.501
 2260CHOL    C126024  25.074  34.828   4.765
 2260CHOL    C226025  24.873  34.557   5.078
 2261CHOL   ROH26026  20.412   3.712   6.480
 2261CHOL    R126027  20.734   3.718   6.192
 2261CHOL    R226028  20.430   3.550   6.171
 2261CHOL    R326029  20.819   3.614   5.786
 2261CHOL    R426030  20.470   3.525   5.865
 2261CHOL    R526031  20.391   3.792   6.109
 2261CHOL    R626032  20.576   3.704   5.688
 2261CHOL    C126033  20.653   3.437   5.464
 2261CHOL    C226034  20.904   3.218   5.176
 2262CHOL   ROH26035  18.143  18.497   7.596
 2262CHOL    R126036  18.350  18.292   7.277
 2262CHOL    R226037  18.023  18.412   7.280
 2262CHOL    R326038  18.313  18.204   6.860
 2262CHOL    R426039  18.020  18.399   6.970
 2262CHOL    R526040  18.178  18.606   7.233
 2262CHOL    R626041  18.220  18.456   6.792
 2262CHOL    C126042  18.061  18.248   6.549
 2262CHOL    C226043  18.150  18.180   6.129
 2263CHOL   ROH26044  27.484  21.050   7.022
 2263CHOL    R126045  27.075  21.034   6.887
 2263CHOL    R226046  27.331  21.239   6.772
 2263CHOL    R326047  26.825  21.168   6.566
 2263CHOL    R426048  27.168  21.291   6.513
 2263CHOL    R526049  27.359  21.012   6.665
 2263CHOL    R626050  27.013  21.119   6.369
 2263CHOL    C126051  26.833  21.397   6.234
 2263CHOL    C226052  26.648  21.363   5.852
 2264CHOL   ROH26053  29.242  20.109   6.900
 2264CHOL    R126054  29.487  20.213   6.560
 2264CHOL    R226055  29.209  20.005   6.569
 2264CHOL    R326056  29.488  20.191   6.133
 2264CHOL    R426057  29.180  20.036   6.262
 2264CHOL    R526058  29.127  20.243   6.564
 2264CHOL    R626059  29.221  20.256   6.106
 2264CHOL    C126060  29.276  20.045   5.823
 2264CHOL    C226061  29.344  19.980   5.370
 2265CHOL   ROH26062  24.365   4.199   3.690
 2265CHOL    R126063  24.473   4.056   4.083
 2265CHOL    R226064  24.186   4.229   3.988
 2265CHOL    R326065  24.304   3.992   4.470
 2265CHOL    R426066  24.048   4.134   4.248
 2265CHOL    R526067  24.155   3.987   3.926
 2265CHOL    R626068  24.064   3.892   4.374
 2265CHOL    C126069  23.965   4.047   4.681
 2265CHOL    C226070  23.916   4.033   5.121
 2266CHOL   ROH26071   1.489   7.796   6.839
 2266CHOL    R126072   1.803   7.778   6.544
 2266CHOL    R226073   1.459   7.770   6.492
 2266CHOL    R326074   1.863   7.809   6.121
 2266CHOL    R426075   1.505   7.846   6.196
 2266CHOL    R526076   1.526   8.010   6.527
 2266CHOL    R626077   1.687   8.019   6.088
 2266CHOL    C126078   1.661   7.849   5.775
 2266CHOL    C226079   1.801   7.649   5.439
 2267CHOL   ROH26080  35.867  34.924   6.894
 2267CHOL    R126081  35.686  35.031   6.518
 2267CHOL    R226082  36.024  34.998   6.591
 2267CHOL    R326083  35.782  35.074   6.103
 2267CHOL    R426084  36.084  34.975   6.288
 2267CHOL    R526085  35.930  34.767   6.553
 2267CHOL    R626086  35.941  34.848   6.093
 2267CHOL    C126087  36.093  35.059   5.847
 2267CHOL    C226088  36.072  35.169   5.432
 2268CHOL   ROH26089  28.629  23.308   6.786
 2268CHOL    R126090  28.970  23.328   6.523
 2268CHOL    R226091  28.638  23.400   6.450
 2268CHOL    R326092  29.086  23.481   6.140
 2268CHOL    R426093  28.731  23.558   6.200
 2268CHOL    R526094  28.737  23.600   6.568
 2268CHOL    R626095  28.948  23.720   6.169
 2268CHOL    C126096  28.936  23.667   5.816
 2268CHOL    C226097  29.169  23.837   5.479
 2269CHOL   ROH26098   4.661  28.547   3.736
 2269CHOL    R126099   4.982  28.663   4.000
 2269CHOL    R226100   4.666  28.545   4.085
 2269CHOL    R326101   5.100  28.637   4.410
 2269CHOL    R426102   4.772  28.476   4.368
 2269CHOL    R526103   4.809  28.347   4.023
 2269CHOL    R626104   5.014  28.376   4.442
 2269CHOL    C126105   4.969  28.511   4.770
 2269CHOL    C226106   5.133  28.576   5.149
 2270CHOL   ROH26107  10.599   2.444   6.517
 2270CHOL    R126108  10.843   2.228   6.235
 2270CHOL    R226109  10.516   2.339   6.195
 2270CHOL    R326110  10.856   2.118   5.822
 2270CHOL    R426111  10.548   2.309   5.888
 2270CHOL    R526112  10.671   2.535   6.155
 2270CHOL    R626113  10.765   2.363   5.730
 2270CHOL    C126114  10.639   2.138   5.482
 2270CHOL    C226115  10.732   1.980   5.099
 2271CHOL   ROH26116  14.624  23.330   3.538
 2271CHOL    R126117  14.541  23.494   3.929
 2271CHOL    R226118  14.503  23.165   3.821
 2271CHOL    R326119  14.458  23.370   4.330
 2271CHOL    R426120  14.499  23.072   4.117
 2271CHOL    R526121  14.747  23.202   3.874
 2271CHOL    R626122  14.644  23.165   4.329
 2271CHOL    C126123  14.395  23.040   4.552
 2271CHOL    C226124  14.346  22.967   4.991
 2272CHOL   ROH26125   2.971   8.075   7.106
 2272CHOL    R126126   3.027   8.450   6.900
 2272CHOL    R226127   3.155   8.137   6.816
 2272CHOL    R326128   3.171   8.607   6.529
 2272CHOL    R426129   3.208   8.240   6.529
 2272CHOL    R526130   2.916   8.148   6.737
 2272CHOL    R626131   3.056   8.407   6.374
 2272CHOL    C126132   3.347   8.493   6.184
 2272CHOL    C226133   3.679   8.724   6.063
 2273CHOL   ROH26134  11.133  30.319   5.342
 2273CHOL    R126135  11.057  30.256   4.922
 2273CHOL    R226136  11.140  30.020   5.163
 2273CHOL    R326137  10.982  29.942   4.641
 2273CHOL    R426138  11.033  29.797   4.976
 2273CHOL    R526139  10.894  30.069   5.184
 2273CHOL    R626140  10.816  29.800   4.811
 2273CHOL    C126141  10.963  29.540   4.614
 2273CHOL    C226142  10.862  29.333   4.263
 2274CHOL   ROH26143   9.557  12.027   6.268
 2274CHOL    R126144   9.463  11.982   5.850
 2274CHOL    R226145   9.726  12.158   5.993
 2274CHOL    R326146   9.634  12.044   5.463
 2274CHOL    R426147   9.873  12.153   5.720
 2274CHOL    R526148   9.789  11.914   5.990
 2274CHOL    R626149   9.885  11.954   5.534
 2274CHOL    C126150   9.961  12.195   5.281
 2274CHOL    C226151  10.228  12.185   4.960
 2275CHOL   ROH26152  34.822  11.604   6.228
 2275CHOL    R126153  34.410  11.732   6.216
 2275CHOL    R226154  34.606  11.615   5.954
 2275CHOL    R326155  34.067  11.722   5.961
 2275CHOL    R426156  34.349  11.557   5.792
 2275CHOL    R526157  34.524  11.415   6.085
 2275CHOL    R626158  34.108  11.461   5.877
 2275CHOL    C126159  33.949  11.608   5.593
 2275CHOL    C226160  33.562  11.777   5.520
 2276CHOL   ROH26161  33.024  12.042   6.516
 2276CHOL    R126162  32.932  12.109   6.099
 2276CHOL    R226163  32.786  11.880   6.318
 2276CHOL    R326164  32.636  12.014   5.805
 2276CHOL    R426165  32.545  11.856   6.125
 2276CHOL    R526166  32.683  12.106   6.361
 2276CHOL    R626167  32.422  12.049   5.977
 2276CHOL    C126168  32.299  11.799   5.753
 2276CHOL    C226169  32.171  11.732   5.334
 2277CHOL   ROH26170  16.694   9.845   4.085
 2277CHOL    R126171  16.729  10.074   4.450
 2277CHOL    R226172  16.514   9.808   4.382
 2277CHOL    R326173  16.609  10.065   4.860
 2277CHOL    R426174  16.472   9.770   4.687
 2277CHOL    R526175  16.741   9.713   4.439
 2277CHOL    R626176  16.653   9.793   4.891
 2277CHOL    C126177  16.385   9.853   5.120
 2277CHOL    C226178  16.281   9.910   5.522
 2278CHOL   ROH26179  14.281  29.386   4.173
 2278CHOL    R126180  14.230  29.042   4.428
 2278CHOL    R226181  14.352  29.357   4.513
 2278CHOL    R326182  14.226  28.934   4.842
 2278CHOL    R426183  14.296  29.294   4.811
 2278CHOL    R526184  14.100  29.370   4.506
 2278CHOL    R626185  14.087  29.159   4.923
 2278CHOL    C126186  14.288  29.086   5.210
 2278CHOL    C226187  14.180  28.892   5.552
 2279CHOL   ROH26188  31.905  31.573   3.858
 2279CHOL    R126189  31.617  31.806   4.078
 2279CHOL    R226190  31.729  31.484   4.145
 2279CHOL    R326191  31.409  31.811   4.451
 2279CHOL    R426192  31.624  31.513   4.436
 2279CHOL    R526193  31.902  31.646   4.231
 2279CHOL    R626194  31.628  31.730   4.600
 2279CHOL    C126195  31.356  31.593   4.787
 2279CHOL    C226196  31.200  31.616   5.204
 2280CHOL   ROH26197   2.637   5.509   7.245
 2280CHOL    R126198   2.332   5.483   6.942
 2280CHOL    R226199   2.620   5.291   6.973
 2280CHOL    R326200   2.197   5.227   6.627
 2280CHOL    R426201   2.494   5.079   6.786
 2280CHOL    R526202   2.447   5.199   7.133
 2280CHOL    R626203   2.236   4.993   6.771
 2280CHOL    C126204   2.292   4.886   6.434
 2280CHOL    C226205   2.177   4.732   6.038
 2281CHOL   ROH26206   5.983  25.094   6.877
 2281CHOL    R126207   5.986  25.193   6.457
 2281CHOL    R226208   5.783  24.963   6.623
 2281CHOL    R326209   5.753  25.139   6.102
 2281CHOL    R426210   5.587  24.970   6.383
 2281CHOL    R526211   5.687  25.194   6.660
 2281CHOL    R626212   5.510  25.181   6.228
 2281CHOL    C126213   5.422  24.954   5.965
 2281CHOL    C226214   5.376  24.870   5.533
 2282CHOL   ROH26215  17.927  19.078   7.680
 2282CHOL    R126216  17.923  19.204   7.267
 2282CHOL    R226217  17.945  18.880   7.393
 2282CHOL    R326218  17.878  19.046   6.872
 2282CHOL    R426219  17.857  18.771   7.116
 2282CHOL    R526220  17.703  18.951   7.400
 2282CHOL    R626221  17.674  18.871   6.940
 2282CHOL    C126222  17.836  18.697   6.673
 2282CHOL    C226223  17.899  18.686   6.246
 2283CHOL   ROH26224   3.465   8.235   3.816
 2283CHOL    R126225   3.673   7.937   4.049
 2283CHOL    R226226   3.436   8.168   4.157
 2283CHOL    R326227   3.660   7.747   4.432
 2283CHOL    R426228   3.390   7.996   4.411
 2283CHOL    R526229   3.314   7.975   4.050
 2283CHOL    R626230   3.385   7.724   4.437
 2283CHOL    C126231   3.465   7.757   4.784
 2283CHOL    C226232   3.672   7.593   5.127
 2284CHOL   ROH26233  22.926  24.631   6.785
 2284CHOL    R126234  22.971  24.377   6.439
 2284CHOL    R226235  22.799  24.678   6.463
 2284CHOL    R326236  22.914  24.380   6.015
 2284CHOL    R426237  22.808  24.704   6.154
 2284CHOL    R526238  23.045  24.730   6.438
 2284CHOL    R626239  23.009  24.638   5.981
 2284CHOL    C126240  22.769  24.610   5.717
 2284CHOL    C226241  22.726  24.507   5.286
 2285CHOL   ROH26242   0.915  13.318   7.619
 2285CHOL    R126243   0.721  13.256   7.239
 2285CHOL    R226244   1.062  13.270   7.306
 2285CHOL    R326245   0.807  13.132   6.839
 2285CHOL    R426246   1.117  13.128   7.036
 2285CHOL    R526247   0.979  13.040   7.368
 2285CHOL    R626248   0.977  12.928   6.914
 2285CHOL    C126249   1.113  13.027   6.599
 2285CHOL    C226250   1.213  13.068   6.162
 2286CHOL   ROH26251  19.983  24.018   7.371
 2286CHOL    R126252  19.922  24.179   6.975
 2286CHOL    R226253  20.032  23.860   7.063
 2286CHOL    R326254  19.893  24.055   6.567
 2286CHOL    R426255  19.957  23.761   6.779
 2286CHOL    R526256  19.781  23.866   7.087
 2286CHOL    R626257  19.744  23.828   6.623
 2286CHOL    C126258  19.927  23.729   6.332
 2286CHOL    C226259  19.843  23.776   5.907
 2287CHOL   ROH26260   0.882  31.006   6.949
 2287CHOL    R126261   1.083  31.198   6.619
 2287CHOL    R226262   0.919  30.890   6.622
 2287CHOL    R326263   1.124  31.170   6.194
 2287CHOL    R426264   0.903  30.900   6.312
 2287CHOL    R526265   0.745  31.071   6.600
 2287CHOL    R626266   0.857  31.114   6.148
 2287CHOL    C126267   1.017  30.941   5.880
 2287CHOL    C226268   1.260  30.944   5.532
 2288CHOL   ROH26269  25.898  16.621   6.892
 2288CHOL    R126270  26.021  16.295   6.637
 2288CHOL    R226271  25.755  16.516   6.592
 2288CHOL    R326272  25.955  16.139   6.244
 2288CHOL    R426273  25.747  16.439   6.292
 2288CHOL    R526274  25.967  16.632   6.518
 2288CHOL    R626275  25.954  16.386   6.121
 2288CHOL    C126276  25.733  16.197   5.913
 2288CHOL    C226277  25.748  15.895   5.585
 2289CHOL   ROH26278  15.072  16.134   4.031
 2289CHOL    R126279  15.253  16.096   4.421
 2289CHOL    R226280  14.922  16.038   4.330
 2289CHOL    R326281  15.174  15.935   4.809
 2289CHOL    R426282  14.884  15.874   4.591
 2289CHOL    R526283  15.057  15.835   4.266
 2289CHOL    R626284  15.057  15.703   4.714
 2289CHOL    C126285  14.885  15.753   5.023
 2289CHOL    C226286  14.829  15.695   5.447
 2290CHOL   ROH26287  31.059  34.804   3.910
 2290CHOL    R126288  31.301  34.684   4.246
 2290CHOL    R226289  31.087  34.958   4.222
 2290CHOL    R326290  31.353  34.763   4.663
 2290CHOL    R426291  31.084  34.977   4.531
 2290CHOL    R526292  30.948  34.753   4.270
 2290CHOL    R626293  31.081  34.777   4.717
 2290CHOL    C126294  31.219  35.002   4.959
 2290CHOL    C226295  31.439  35.034   5.354
 2291CHOL   ROH26296   6.772  11.819   5.051
 2291CHOL    R126297   6.926  12.101   5.339
 2291CHOL    R226298   6.876  11.759   5.379
 2291CHOL    R326299   7.127  12.114   5.716
 2291CHOL    R426300   7.069  11.763   5.621
 2291CHOL    R526301   7.093  11.792   5.253
 2291CHOL    R626302   7.299  11.905   5.657
 2291CHOL    C126303   7.262  11.874   6.012
 2291CHOL    C226304   7.360  11.997   6.398
 2292CHOL   ROH26305  15.998   5.547   3.995
 2292CHOL    R126306  16.284   5.396   4.280
 2292CHOL    R226307  16.020   5.615   4.336
 2292CHOL    R326308  16.350   5.370   4.702
 2292CHOL    R426309  16.036   5.551   4.639
 2292CHOL    R526310  15.927   5.381   4.329
 2292CHOL    R626311  16.087   5.313   4.763
 2292CHOL    C126312  16.195   5.489   5.054
 2292CHOL    C226313  16.441   5.419   5.424
 2293CHOL   ROH26314   4.099  16.058   6.912
 2293CHOL    R126315   3.785  15.842   6.710
 2293CHOL    R226316   3.984  16.099   6.585
 2293CHOL    R326317   3.625  15.778   6.318
 2293CHOL    R426318   3.907  16.014   6.297
 2293CHOL    R526319   4.117  15.885   6.574
 2293CHOL    R626320   3.872  15.763   6.194
 2293CHOL    C126321   3.666  15.899   5.936
 2293CHOL    C226322   3.498  15.813   5.537
 2294CHOL   ROH26323  21.672  23.441   7.326
 2294CHOL    R126324  21.775  23.289   6.935
 2294CHOL    R226325  21.459  23.364   7.060
 2294CHOL    R326326  21.607  23.229   6.547
 2294CHOL    R426327  21.351  23.374   6.769
 2294CHOL    R526328  21.568  23.580   6.988
 2294CHOL    R626329  21.471  23.470   6.544
 2294CHOL    C126330  21.260  23.262   6.344
 2294CHOL    C226331  21.274  23.048   5.979
 2295CHOL   ROH26332  31.659  33.589   6.452
 2295CHOL    R126333  31.790  33.384   6.096
 2295CHOL    R226334  31.524  33.605   6.131
 2295CHOL    R326335  31.735  33.387   5.672
 2295CHOL    R426336  31.523  33.646   5.824
 2295CHOL    R526337  31.736  33.740   6.112
 2295CHOL    R626338  31.733  33.663   5.651
 2295CHOL    C126339  31.519  33.565   5.382
 2295CHOL    C226340  31.511  33.452   4.939
 2296CHOL   ROH26341   9.677  15.925   3.790
 2296CHOL    R126342   9.714  15.722   4.169
 2296CHOL    R226343   9.579  16.036   4.106
 2296CHOL    R326344   9.575  15.745   4.573
 2296CHOL    R426345   9.434  16.025   4.380
 2296CHOL    R526346   9.404  15.863   4.048
 2296CHOL    R626347   9.316  15.813   4.504
 2296CHOL    C126348   9.355  15.976   4.820
 2296CHOL    C226349   9.149  15.930   5.197
 2297CHOL   ROH26350  25.486  23.518   7.018
 2297CHOL    R126351  25.659  23.538   6.624
 2297CHOL    R226352  25.394  23.340   6.733
 2297CHOL    R326353  25.581  23.418   6.221
 2297CHOL    R426354  25.308  23.300   6.438
 2297CHOL    R526355  25.305  23.572   6.688
 2297CHOL    R626356  25.311  23.478   6.230
 2297CHOL    C126357  25.320  23.206   5.998
 2297CHOL    C226358  25.442  23.085   5.597
 2298CHOL   ROH26359  21.709  35.791   3.571
 2298CHOL    R126360  21.804  36.050   3.902
 2298CHOL    R226361  21.610  35.761   3.904
 2298CHOL    R326362  21.785  36.063   4.330
 2298CHOL    R426363  21.645  35.744   4.212
 2298CHOL    R526364  21.852  35.692   3.909
 2298CHOL    R626365  21.864  35.800   4.364
 2298CHOL    C126366  21.653  35.853   4.647
 2298CHOL    C226367  21.666  35.901   5.095
 2299CHOL   ROH26368   7.632  33.896   3.839
 2299CHOL    R126369   7.645  34.121   4.207
 2299CHOL    R226370   7.400  33.898   4.099
 2299CHOL    R326371   7.456  34.142   4.590
 2299CHOL    R426372   7.300  33.874   4.392
 2299CHOL    R526373   7.592  33.764   4.193
 2299CHOL    R626374   7.443  33.868   4.624
 2299CHOL    C126375   7.155  33.980   4.804
 2299CHOL    C226376   7.008  34.326   5.030
 2300CHOL   ROH26377   7.099  12.350   6.938
 2300CHOL    R126378   6.887  12.711   6.834
 2300CHOL    R226379   7.047  12.487   6.621
 2300CHOL    R326380   6.723  12.914   6.494
 2300CHOL    R426381   6.883  12.601   6.384
 2300CHOL    R526382   6.821  12.390   6.681
 2300CHOL    R626383   6.623  12.684   6.376
 2300CHOL    C126384   6.697  12.889   6.093
 2300CHOL    C226385   6.596  13.216   5.844
 2301CHOL   ROH26386  29.353  22.074   6.603
 2301CHOL    R126387  29.560  22.097   6.226
 2301CHOL    R226388  29.258  21.940   6.295
 2301CHOL    R326389  29.499  22.028   5.808
 2301CHOL    R426390  29.192  21.941   5.993
 2301CHOL    R526391  29.213  22.187   6.268
 2301CHOL    R626392  29.243  22.133   5.805
 2301CHOL    C126393  29.226  21.885   5.548
 2301CHOL    C226394  29.290  21.832   5.104
 2302CHOL   ROH26395  34.483  22.680   7.146
 2302CHOL    R126396  34.720  22.738   6.791
 2302CHOL    R226397  34.415  22.884   6.871
 2302CHOL    R326398  34.753  22.996   6.452
 2302CHOL    R426399  34.468  23.103   6.659
 2302CHOL    R526400  34.596  23.009   6.994
 2302CHOL    R626401  34.703  23.228   6.594
 2302CHOL    C126402  34.570  23.307   6.272
 2302CHOL    C226403  34.713  23.418   5.879
 2303CHOL   ROH26404  26.951  12.623   7.124
 2303CHOL    R126405  27.195  12.772   6.801
 2303CHOL    R226406  26.931  12.546   6.785
 2303CHOL    R326407  27.207  12.788   6.374
 2303CHOL    R426408  26.907  12.603   6.481
 2303CHOL    R526409  26.834  12.779   6.798
 2303CHOL    R626410  26.936  12.838   6.346
 2303CHOL    C126411  27.011  12.656   6.047
 2303CHOL    C226412  26.996  12.603   5.619
 2304CHOL   ROH26413  34.960  13.322   7.352
 2304CHOL    R126414  35.286  13.293   7.071
 2304CHOL    R226415  34.952  13.210   7.022
 2304CHOL    R326416  35.360  13.234   6.654
 2304CHOL    R426417  34.998  13.221   6.716
 2304CHOL    R526418  34.974  13.460   6.998
 2304CHOL    R626419  35.151  13.394   6.570
 2304CHOL    C126420  35.171  13.153   6.307
 2304CHOL    C226421  35.261  13.382   5.915
 2305CHOL   ROH26422  25.366  32.136   6.556
 2305CHOL    R126423  25.052  32.069   6.268
 2305CHOL    R226424  25.392  32.119   6.209
 2305CHOL    R326425  24.996  31.973   5.855
 2305CHOL    R426426  25.356  31.997   5.926
 2305CHOL    R526427  25.359  31.878   6.276
 2305CHOL    R626428  25.201  31.788   5.846
 2305CHOL    C126429  25.201  31.916   5.512
 2305CHOL    C226430  24.983  31.970   5.149
 2306CHOL   ROH26431  35.731   6.648   7.034
 2306CHOL    R126432  36.004   6.533   6.720
 2306CHOL    R226433  35.678   6.651   6.690
 2306CHOL    R326434  36.052   6.559   6.296
 2306CHOL    R426435  35.735   6.720   6.393
 2306CHOL    R526436  35.829   6.849   6.727
 2306CHOL    R626437  35.962   6.820   6.279
 2306CHOL    C126438  35.862   6.685   5.963
 2306CHOL    C226439  35.997   6.770   5.532
 2307CHOL   ROH26440  24.888   5.567   6.671
 2307CHOL    R126441  25.095   5.752   6.341
 2307CHOL    R226442  24.814   5.547   6.331
 2307CHOL    R326443  25.048   5.836   5.924
 2307CHOL    R426444  24.752   5.653   6.046
 2307CHOL    R526445  24.739   5.780   6.394
 2307CHOL    R626446  24.780   5.905   5.945
 2307CHOL    C126447  24.798   5.770   5.615
 2307CHOL    C226448  24.707   5.838   5.193
 2308CHOL   ROH26449  12.921  16.156   6.945
 2308CHOL    R126450  12.811  16.025   6.549
 2308CHOL    R226451  12.981  16.314   6.641
 2308CHOL    R326452  12.891  16.109   6.138
 2308CHOL    R426453  13.083  16.342   6.349
 2308CHOL    R526454  13.146  16.123   6.641
 2308CHOL    R626455  13.162  16.147   6.174
 2308CHOL    C126456  13.091  16.366   5.900
 2308CHOL    C226457  13.081  16.561   5.517
 2309CHOL   ROH26458  33.683   0.150   6.672
 2309CHOL    R126459  34.003   0.166   6.383
 2309CHOL    R226460  33.690   0.019   6.349
 2309CHOL    R326461  34.080   0.097   5.968
 2309CHOL    R426462  33.727   0.020   6.041
 2309CHOL    R526463  33.664   0.267   6.310
 2309CHOL    R626464  33.842   0.210   5.882
 2309CHOL    C126465  33.903  -0.038   5.632
 2309CHOL    C226466  34.139  -0.041   5.263
 2310CHOL   ROH26467  27.578  20.157   6.796
 2310CHOL    R126468  27.299  20.258   6.482
 2310CHOL    R226469  27.646  20.282   6.478
 2310CHOL    R326470  27.288  20.349   6.065
 2310CHOL    R426471  27.637  20.294   6.168
 2310CHOL    R526472  27.584  20.042   6.434
 2310CHOL    R626473  27.476  20.158   5.995
 2310CHOL    C126474  27.530  20.412   5.748
 2310CHOL    C226475  27.373  20.387   5.342
 2311CHOL   ROH26476  23.059   1.615   6.882
 2311CHOL    R126477  23.280   1.429   6.561
 2311CHOL    R226478  23.042   1.682   6.540
 2311CHOL    R326479  23.371   1.482   6.147
 2311CHOL    R426480  23.149   1.754   6.258
 2311CHOL    R526481  23.261   1.787   6.609
 2311CHOL    R626482  23.406   1.756   6.166
 2311CHOL    C126483  23.285   1.718   5.831
 2311CHOL    C226484  23.487   1.661   5.440
 2312CHOL   ROH26485  20.698   7.241   7.121
 2312CHOL    R126486  20.483   7.126   6.765
 2312CHOL    R226487  20.725   7.375   6.800
 2312CHOL    R326488  20.491   7.181   6.341
 2312CHOL    R426489  20.767   7.372   6.493
 2312CHOL    R526490  20.843   7.153   6.781
 2312CHOL    R626491  20.767   7.161   6.320
 2312CHOL    C126492  20.687   7.383   6.051
 2312CHOL    C226493  20.482   7.477   5.684
 2313CHOL   ROH26494  21.767  14.982   6.731
 2313CHOL    R126495  22.079  14.750   6.544
 2313CHOL    R226496  21.760  14.818   6.423
 2313CHOL    R326497  22.184  14.577   6.168
 2313CHOL    R426498  21.857  14.743   6.138
 2313CHOL    R526499  21.905  15.020   6.379
 2313CHOL    R626500  22.097  14.793   6.018
 2313CHOL    C126501  22.042  14.520   5.795
 2313CHOL    C226502  22.140  14.135   5.590
 2314CHOL   ROH26503  18.809  32.999   4.066
 2314CHOL    R126504  18.415  32.870   4.184
 2314CHOL    R226505  18.654  33.034   4.376
 2314CHOL    R326506  18.129  32.920   4.498
 2314CHOL    R426507  18.431  33.115   4.576
 2314CHOL    R526508  18.537  33.206   4.233
 2314CHOL    R626509  18.173  33.191   4.526
 2314CHOL    C126510  18.082  33.094   4.858
 2314CHOL    C226511  17.795  32.949   5.158
 2315CHOL   ROH26512  12.802   2.829   5.186
 2315CHOL    R126513  13.024   2.994   4.855
 2315CHOL    R226514  12.752   2.777   4.845
 2315CHOL    R326515  13.002   3.039   4.430
 2315CHOL    R426516  12.706   2.855   4.548
 2315CHOL    R526517  12.664   3.011   4.882
 2315CHOL    R626518  12.732   3.099   4.427
 2315CHOL    C126519  12.776   2.936   4.112
 2315CHOL    C226520  12.964   2.940   3.723
 2316CHOL   ROH26521  26.763  14.475   7.589
 2316CHOL    R126522  26.803  14.728   7.241
 2316CHOL    R226523  26.796  14.380   7.255
 2316CHOL    R326524  26.786  14.710   6.814
 2316CHOL    R426525  26.729  14.374   6.952
 2316CHOL    R526526  26.559  14.463   7.268
 2316CHOL    R626527  26.568  14.540   6.807
 2316CHOL    C126528  26.745  14.450   6.510
 2316CHOL    C226529  26.656  14.406   6.098
 2317CHOL   ROH26530  15.049  23.465   3.905
 2317CHOL    R126531  15.009  23.108   4.144
 2317CHOL    R226532  15.116  23.423   4.245
 2317CHOL    R326533  15.005  22.981   4.553
 2317CHOL    R426534  15.059  23.344   4.539
 2317CHOL    R526535  14.864  23.426   4.235
 2317CHOL    R626536  14.855  23.195   4.642
 2317CHOL    C126537  15.055  23.119   4.928
 2317CHOL    C226538  15.096  22.966   5.336
 2318CHOL   ROH26539  28.804   9.811   7.054
 2318CHOL    R126540  28.858   9.511   6.749
 2318CHOL    R226541  28.729   9.832   6.714
 2318CHOL    R326542  28.857   9.466   6.323
 2318CHOL    R426543  28.781   9.816   6.409
 2318CHOL    R526544  28.980   9.849   6.719
 2318CHOL    R626545  28.991   9.703   6.275
 2318CHOL    C126546  28.787   9.671   5.983
 2318CHOL    C226547  28.635   9.468   5.619
 2319CHOL   ROH26548  31.140  18.081   3.787
 2319CHOL    R126549  31.122  17.919   4.186
 2319CHOL    R226550  31.385  18.089   4.034
 2319CHOL    R326551  31.330  17.933   4.559
 2319CHOL    R426552  31.505  18.145   4.315
 2319CHOL    R526553  31.217  18.260   4.113
 2319CHOL    R626554  31.378  18.205   4.548
 2319CHOL    C126555  31.661  18.086   4.732
 2319CHOL    C226556  31.791  18.242   5.122
 2320CHOL   ROH26557  33.004  11.148   6.896
 2320CHOL    R126558  32.905  10.877   6.576
 2320CHOL    R226559  32.925  11.224   6.565
 2320CHOL    R326560  32.859  10.867   6.151
 2320CHOL    R426561  32.947  11.209   6.256
 2320CHOL    R526562  33.159  11.132   6.549
 2320CHOL    R626563  33.079  11.028   6.101
 2320CHOL    C126564  32.864  11.107   5.826
 2320CHOL    C226565  32.610  10.884   5.553
 2321CHOL   ROH26566  13.280  19.169   3.784
 2321CHOL    R126567  13.350  18.821   4.029
 2321CHOL    R226568  13.242  19.137   4.129
 2321CHOL    R326569  13.275  18.672   4.423
 2321CHOL    R426570  13.139  19.013   4.394
 2321CHOL    R526571  13.043  19.012   4.036
 2321CHOL    R626572  13.017  18.773   4.437
 2321CHOL    C126573  13.120  18.783   4.779
 2321CHOL    C226574  13.022  18.659   5.188
 2322CHOL   ROH26575  25.049   2.561   3.888
 2322CHOL    R126576  25.323   2.387   4.172
 2322CHOL    R226577  25.108   2.656   4.218
 2322CHOL    R326578  25.415   2.390   4.590
 2322CHOL    R426579  25.135   2.620   4.525
 2322CHOL    R526580  24.974   2.444   4.242
 2322CHOL    R626581  25.150   2.389   4.671
 2322CHOL    C126582  25.310   2.569   4.935
 2322CHOL    C226583  25.506   2.486   5.278
 2323CHOL   ROH26584  29.348   2.300   7.338
 2323CHOL    R126585  29.389   2.594   7.024
 2323CHOL    R226586  29.331   2.252   6.993
 2323CHOL    R326587  29.324   2.642   6.604
 2323CHOL    R426588  29.232   2.300   6.703
 2323CHOL    R526589  29.111   2.364   7.047
 2323CHOL    R626590  29.083   2.506   6.603
 2323CHOL    C126591  29.211   2.437   6.276
 2323CHOL    C226592  29.218   2.590   5.851
 2324CHOL   ROH26593  26.684  28.219   6.713
 2324CHOL    R126594  26.913  28.165   6.351
 2324CHOL    R226595  26.573  28.108   6.402
 2324CHOL    R326596  26.860  28.101   5.932
 2324CHOL    R426597  26.530  28.117   6.095
 2324CHOL    R526598  26.606  28.356   6.368
 2324CHOL    R626599  26.648  28.278   5.908
 2324CHOL    C126600  26.574  28.036   5.655
 2324CHOL    C226601  26.637  28.070   5.224
 2325CHOL   ROH26602  12.849  16.877   3.828
 2325CHOL    R126603  13.091  16.841   4.183
 2325CHOL    R226604  12.852  17.083   4.109
 2325CHOL    R326605  13.120  16.994   4.581
 2325CHOL    R426606  12.836  17.154   4.410
 2325CHOL    R526607  12.732  16.876   4.189
 2325CHOL    R626608  12.848  16.989   4.628
 2325CHOL    C126609  12.954  17.264   4.830
 2325CHOL    C226610  13.185  17.456   5.118
 2326CHOL   ROH26611  15.550   3.795   4.259
 2326CHOL    R126612  15.294   3.950   4.571
 2326CHOL    R226613  15.536   3.701   4.595
 2326CHOL    R326614  15.250   3.946   4.996
 2326CHOL    R426615  15.540   3.740   4.902
 2326CHOL    R526616  15.653   3.924   4.602
 2326CHOL    R626617  15.521   3.970   5.047
 2326CHOL    C126618  15.406   3.782   5.329
 2326CHOL    C226619  15.240   3.909   5.711
 2327CHOL   ROH26620  14.361   3.781   4.128
 2327CHOL    R126621  14.693   3.569   4.304
 2327CHOL    R226622  14.405   3.687   4.461
 2327CHOL    R326623  14.803   3.364   4.663
 2327CHOL    R426624  14.460   3.494   4.697
 2327CHOL    R526625  14.348   3.470   4.345
 2327CHOL    R626626  14.558   3.239   4.694
 2327CHOL    C126627  14.667   3.277   5.032
 2327CHOL    C226628  14.813   3.012   5.316
 2328CHOL   ROH26629  33.179  16.197   4.733
 2328CHOL    R126630  33.335  15.879   4.979
 2328CHOL    R226631  33.193  16.180   5.081
 2328CHOL    R326632  33.338  15.745   5.386
 2328CHOL    R426633  33.147  16.059   5.363
 2328CHOL    R526634  33.006  16.021   5.023
 2328CHOL    R626635  33.072  15.805   5.432
 2328CHOL    C126636  33.218  15.851   5.755
 2328CHOL    C226637  33.554  15.799   6.005
 2329CHOL   ROH26638   7.961  10.313   6.714
 2329CHOL    R126639   7.947  10.627   6.419
 2329CHOL    R226640   8.009  10.288   6.369
 2329CHOL    R326641   7.928  10.685   5.996
 2329CHOL    R426642   7.940  10.324   6.069
 2329CHOL    R526643   7.759  10.320   6.392
 2329CHOL    R626644   7.748  10.480   5.953
 2329CHOL    C126645   7.935  10.481   5.648
 2329CHOL    C226646   8.031  10.610   5.230
 2330CHOL   ROH26647  32.637   2.351   6.862
 2330CHOL    R126648  32.774   2.670   6.606
 2330CHOL    R226649  32.934   2.369   6.680
 2330CHOL    R326650  33.072   2.752   6.309
 2330CHOL    R426651  33.113   2.407   6.430
 2330CHOL    R526652  32.759   2.324   6.503
 2330CHOL    R626653  33.048   2.507   6.184
 2330CHOL    C126654  33.391   2.588   6.127
 2330CHOL    C226655  33.766   2.668   5.914
 2331CHOL   ROH26656  26.777   2.989   4.226
 2331CHOL    R126657  26.753   3.337   4.481
 2331CHOL    R226658  26.622   3.019   4.537
 2331CHOL    R326659  26.650   3.449   4.880
 2331CHOL    R426660  26.600   3.086   4.839
 2331CHOL    R526661  26.868   3.014   4.594
 2331CHOL    R626662  26.771   3.229   4.997
 2331CHOL    C126663  26.503   3.297   5.224
 2331CHOL    C226664  26.397   3.532   5.580
 2332CHOL   ROH26665  29.586   1.335   3.737
 2332CHOL    R126666  29.759   1.586   4.042
 2332CHOL    R226667  29.526   1.331   4.080
 2332CHOL    R326668  29.797   1.613   4.467
 2332CHOL    R426669  29.596   1.316   4.382
 2332CHOL    R526670  29.754   1.225   4.060
 2332CHOL    R626671  29.839   1.342   4.504
 2332CHOL    C126672  29.675   1.435   4.808
 2332CHOL    C226673  29.488   1.710   5.093
 2333CHOL   ROH26674  35.536  27.788   6.829
 2333CHOL    R126675  35.223  27.493   6.803
 2333CHOL    R226676  35.331  27.714   6.557
 2333CHOL    R326677  34.977  27.295   6.514
 2333CHOL    R426678  35.196  27.536   6.343
 2333CHOL    R526679  35.492  27.520   6.564
 2333CHOL    R626680  35.180  27.264   6.329
 2333CHOL    C126681  34.890  27.292   6.121
 2333CHOL    C226682  34.541  27.103   5.973
 2334CHOL   ROH26683  35.906  23.237   7.445
 2334CHOL    R126684  35.937  22.899   7.179
 2334CHOL    R226685  35.754  23.192   7.135
 2334CHOL    R326686  35.848  22.784   6.777
 2334CHOL    R426687  35.738  23.131   6.831
 2334CHOL    R526688  35.994  23.241   7.076
 2334CHOL    R626689  35.928  23.025   6.666
 2334CHOL    C126690  35.671  22.920   6.441
 2334CHOL    C226691  35.582  22.659   6.096
 2335CHOL   ROH26692  15.802  12.068   6.322
 2335CHOL    R126693  15.517  12.164   6.012
 2335CHOL    R226694  15.857  12.241   6.024
 2335CHOL    R326695  15.501  12.304   5.608
 2335CHOL    R426696  15.852  12.289   5.718
 2335CHOL    R526697  15.834  12.001   5.950
 2335CHOL    R626698  15.717  12.153   5.523
 2335CHOL    C126699  15.737  12.441   5.311
 2335CHOL    C226700  15.590  12.693   5.009
 2336CHOL   ROH26701  15.947   7.561   3.544
 2336CHOL    R126702  16.148   7.326   3.844
 2336CHOL    R226703  15.959   7.615   3.888
 2336CHOL    R326704  16.168   7.276   4.268
 2336CHOL    R426705  15.930   7.545   4.188
 2336CHOL    R526706  15.800   7.420   3.865
 2336CHOL    R626707  15.895   7.302   4.307
 2336CHOL    C126708  16.027   7.432   4.612
 2336CHOL    C226709  15.832   7.112   4.859
 2337CHOL   ROH26710   5.166  11.484   4.071
 2337CHOL    R126711   5.357  11.581   4.445
 2337CHOL    R226712   5.160  11.304   4.369
 2337CHOL    R326713   5.456  11.405   4.822
 2337CHOL    R426714   5.277  11.158   4.616
 2337CHOL    R526715   5.392  11.262   4.280
 2337CHOL    R626716   5.531  11.161   4.715
 2337CHOL    C126717   5.407  11.067   5.036
 2337CHOL    C226718   5.732  10.941   5.328
 2338CHOL   ROH26719   2.199   3.050   6.935
 2338CHOL    R126720   2.058   3.261   6.586
 2338CHOL    R226721   2.332   3.048   6.612
 2338CHOL    R326722   2.108   3.272   6.162
 2338CHOL    R426723   2.331   3.015   6.304
 2338CHOL    R526724   2.124   2.906   6.592
 2338CHOL    R626725   2.119   2.997   6.133
 2338CHOL    C126726   2.327   3.109   5.865
 2338CHOL    C226727   2.093   3.242   5.497
 2339CHOL   ROH26728   8.058  23.826   4.429
 2339CHOL    R126729   7.839  23.837   4.800
 2339CHOL    R226730   8.010  23.569   4.659
 2339CHOL    R326731   7.781  23.610   5.158
 2339CHOL    R426732   8.014  23.431   4.937
 2339CHOL    R526733   8.179  23.718   4.772
 2339CHOL    R626734   8.048  23.540   5.184
 2339CHOL    C126735   7.881  23.260   5.330
 2339CHOL    C226736   7.794  23.244   5.778
 2340CHOL   ROH26737  16.918  35.646   6.689
 2340CHOL    R126738  16.903  35.470   6.296
 2340CHOL    R226739  16.882  35.806   6.382
 2340CHOL    R326740  16.925  35.578   5.883
 2340CHOL    R426741  16.953  35.881   6.089
 2340CHOL    R526742  17.125  35.740   6.385
 2340CHOL    R626743  17.129  35.762   5.918
 2340CHOL    C126744  16.951  35.899   5.641
 2340CHOL    C226745  16.561  35.777   5.476
 2341CHOL   ROH26746  26.438  23.633   6.997
 2341CHOL    R126747  26.350  23.832   6.624
 2341CHOL    R226748  26.593  23.591   6.687
 2341CHOL    R326749  26.433  23.805   6.206
 2341CHOL    R426750  26.611  23.535   6.383
 2341CHOL    R526751  26.371  23.473   6.659
 2341CHOL    R626752  26.412  23.529   6.196
 2341CHOL    C126753  26.652  23.595   5.939
 2341CHOL    C226754  26.659  23.564   5.492
 2342CHOL   ROH26755  31.384  16.848   6.867
 2342CHOL    R126756  31.315  17.130   6.548
 2342CHOL    R226757  31.224  16.794   6.562
 2342CHOL    R326758  31.088  17.175   6.188
 2342CHOL    R426759  31.019  16.844   6.335
 2342CHOL    R526760  31.055  16.927   6.694
 2342CHOL    R626761  30.858  17.061   6.292
 2342CHOL    C126762  30.836  16.974   5.946
 2342CHOL    C226763  30.810  17.164   5.564
 2343CHOL   ROH26764  15.421  10.638   7.066
 2343CHOL    R126765  15.662  10.500   6.736
 2343CHOL    R226766  15.315  10.526   6.753
 2343CHOL    R326767  15.633  10.410   6.318
 2343CHOL    R426768  15.303  10.515   6.443
 2343CHOL    R526769  15.409  10.755   6.705
 2343CHOL    R626770  15.472  10.627   6.259
 2343CHOL    C126771  15.366  10.386   6.018
 2343CHOL    C226772  15.366  10.623   5.650
 2344CHOL   ROH26773  30.562   3.551   7.090
 2344CHOL    R126774  30.421   3.743   6.731
 2344CHOL    R226775  30.744   3.738   6.859
 2344CHOL    R326776  30.568   3.927   6.373
 2344CHOL    R426777  30.852   3.819   6.580
 2344CHOL    R526778  30.705   3.519   6.740
 2344CHOL    R626779  30.769   3.741   6.333
 2344CHOL    C126780  30.911   4.037   6.192
 2344CHOL    C226781  30.985   4.298   5.856
 2345CHOL   ROH26782  30.596   8.843   6.877
 2345CHOL    R126783  30.545   8.780   6.453
 2345CHOL    R226784  30.821   8.912   6.620
 2345CHOL    R326785  30.770   8.772   6.090
 2345CHOL    R426786  30.995   8.853   6.370
 2345CHOL    R526787  30.831   8.661   6.640
 2345CHOL    R626788  30.987   8.640   6.200
 2345CHOL    C126789  31.141   8.838   5.945
 2345CHOL    C226790  31.313   8.639   5.609
 2346CHOL   ROH26791  34.649  15.642   7.446
 2346CHOL    R126792  34.744  15.861   7.087
 2346CHOL    R226793  34.656  15.526   7.118
 2346CHOL    R326794  34.719  15.828   6.661
 2346CHOL    R426795  34.587  15.521   6.816
 2346CHOL    R526796  34.445  15.663   7.127
 2346CHOL    R626797  34.467  15.713   6.662
 2346CHOL    C126798  34.615  15.570   6.370
 2346CHOL    C226799  34.616  15.756   5.990
 2347CHOL   ROH26800  10.517   6.044   6.846
 2347CHOL    R126801  10.369   5.655   6.732
 2347CHOL    R226802  10.500   5.904   6.527
 2347CHOL    R326803  10.366   5.385   6.400
 2347CHOL    R426804  10.547   5.692   6.306
 2347CHOL    R526805  10.693   5.782   6.634
 2347CHOL    R626806  10.630   5.433   6.330
 2347CHOL    C126807  10.480   5.357   6.014
 2347CHOL    C226808  10.567   4.969   5.833
 2348CHOL   ROH26809   6.081  15.864   4.219
 2348CHOL    R126810   6.243  15.732   4.597
 2348CHOL    R226811   6.052  16.016   4.531
 2348CHOL    R326812   6.210  15.808   5.016
 2348CHOL    R426813   5.985  16.035   4.834
 2348CHOL    R526814   5.895  15.818   4.547
 2348CHOL    R626815   5.934  15.836   5.013
 2348CHOL    C126816   6.029  16.053   5.280
 2348CHOL    C226817   6.029  16.128   5.721
 2349CHOL   ROH26818   1.370  30.726   7.244
 2349CHOL    R126819   1.365  30.929   6.864
 2349CHOL    R226820   1.431  30.593   6.927
 2349CHOL    R326821   1.363  30.848   6.444
 2349CHOL    R426822   1.374  30.530   6.629
 2349CHOL    R526823   1.180  30.626   6.930
 2349CHOL    R626824   1.185  30.636   6.463
 2349CHOL    C126825   1.384  30.544   6.180
 2349CHOL    C226826   1.473  30.539   5.758
 2350CHOL   ROH26827  31.855  21.753   7.024
 2350CHOL    R126828  31.840  21.524   6.659
 2350CHOL    R226829  31.753  21.857   6.707
 2350CHOL    R326830  31.796  21.574   6.237
 2350CHOL    R426831  31.776  21.903   6.401
 2350CHOL    R526832  32.005  21.844   6.687
 2350CHOL    R626833  31.956  21.799   6.224
 2350CHOL    C126834  31.724  21.856   5.958
 2350CHOL    C226835  31.860  21.823   5.523
 2351CHOL   ROH26836  35.222   2.484   3.404
 2351CHOL    R126837  35.242   2.770   3.726
 2351CHOL    R226838  35.050   2.480   3.707
 2351CHOL    R326839  35.128   2.817   4.135
 2351CHOL    R426840  35.015   2.488   4.015
 2351CHOL    R526841  35.285   2.414   3.772
 2351CHOL    R626842  35.195   2.559   4.207
 2351CHOL    C126843  34.926   2.632   4.431
 2351CHOL    C226844  34.799   2.741   4.842
 2352CHOL   ROH26845  28.464  16.538   6.922
 2352CHOL    R126846  28.621  16.400   6.545
 2352CHOL    R226847  28.288  16.430   6.641
 2352CHOL    R326848  28.496  16.315   6.145
 2352CHOL    R426849  28.205  16.423   6.342
 2352CHOL    R526850  28.371  16.659   6.574
 2352CHOL    R626851  28.328  16.534   6.126
 2352CHOL    C126852  28.167  16.297   5.913
 2352CHOL    C226853  28.175  15.967   5.588
 2353CHOL   ROH26854  23.991  11.700   7.123
 2353CHOL    R126855  24.291  11.913   6.898
 2353CHOL    R226856  24.045  11.699   6.779
 2353CHOL    R326857  24.391  12.021   6.497
 2353CHOL    R426858  24.083  11.820   6.496
 2353CHOL    R526859  23.939  11.924   6.821
 2353CHOL    R626860  24.130  12.078   6.423
 2353CHOL    C126861  24.273  11.965   6.115
 2353CHOL    C226862  24.416  11.869   5.710
 2354CHOL   ROH26863  15.007  28.505   3.887
 2354CHOL    R126864  15.302  28.200   3.968
 2354CHOL    R226865  15.106  28.376   4.196
 2354CHOL    R326866  15.438  27.946   4.284
 2354CHOL    R426867  15.164  28.158   4.408
 2354CHOL    R526868  14.965  28.192   4.098
 2354CHOL    R626869  15.184  27.887   4.377
 2354CHOL    C126870  15.380  27.869   4.675
 2354CHOL    C226871  15.400  27.555   4.982
 2355CHOL   ROH26872  29.439   0.631   7.300
 2355CHOL    R126873  29.110   0.587   7.024
 2355CHOL    R226874  29.441   0.667   6.953
 2355CHOL    R326875  29.031   0.550   6.605
 2355CHOL    R426876  29.393   0.586   6.658
 2355CHOL    R526877  29.426   0.418   6.986
 2355CHOL    R626878  29.244   0.381   6.557
 2355CHOL    C126879  29.215   0.556   6.247
 2355CHOL    C226880  29.125   0.560   5.807
 2356CHOL   ROH26881  14.212   6.423   3.963
 2356CHOL    R126882  13.993   6.592   4.294
 2356CHOL    R226883  14.331   6.511   4.278
 2356CHOL    R326884  14.058   6.782   4.672
 2356CHOL    R426885  14.383   6.695   4.522
 2356CHOL    R526886  14.299   6.733   4.164
 2356CHOL    R626887  14.271   6.936   4.584
 2356CHOL    C126888  14.352   6.884   4.928
 2356CHOL    C226889  14.205   6.922   5.352
 2357CHOL   ROH26890  35.681  21.325   6.340
 2357CHOL    R126891  35.412  21.277   6.674
 2357CHOL    R226892  35.509  21.572   6.516
 2357CHOL    R326893  35.122  21.495   6.900
 2357CHOL    R426894  35.263  21.714   6.640
 2357CHOL    R526895  35.329  21.463   6.376
 2357CHOL    R626896  35.010  21.620   6.680
 2357CHOL    C126897  34.961  21.863   6.937
 2357CHOL    C226898  34.852  21.942   7.354
 2358CHOL   ROH26899  10.781  10.206   5.091
 2358CHOL    R126900  10.768  10.581   5.305
 2358CHOL    R226901  11.040  10.435   5.143
 2358CHOL    R326902  10.997  10.937   5.364
 2358CHOL    R426903  11.181  10.711   5.140
 2358CHOL    R526904  10.896  10.547   4.969
 2358CHOL    R626905  11.074  10.959   5.099
 2358CHOL    C126906  11.352  11.105   5.272
 2358CHOL    C226907  11.471  11.473   5.502
 2359CHOL   ROH26908  24.643   9.092   4.102
 2359CHOL    R126909  24.831   9.076   4.490
 2359CHOL    R226910  24.494   9.034   4.413
 2359CHOL    R326911  24.751   8.955   4.893
 2359CHOL    R426912  24.452   8.896   4.687
 2359CHOL    R526913  24.613   8.817   4.363
 2359CHOL    R626914  24.616   8.724   4.821
 2359CHOL    C126915  24.456   8.813   5.128
 2359CHOL    C226916  24.623   9.006   5.482
 2360CHOL   ROH26917  14.231  13.401   3.880
 2360CHOL    R126918  14.628  13.356   4.043
 2360CHOL    R226919  14.374  13.569   4.150
 2360CHOL    R326920  14.859  13.462   4.387
 2360CHOL    R426921  14.520  13.600   4.422
 2360CHOL    R526922  14.327  13.339   4.243
 2360CHOL    R626923  14.655  13.413   4.568
 2360CHOL    C126924  14.839  13.673   4.730
 2360CHOL    C226925  15.119  13.892   5.003
 2361CHOL   ROH26926  20.618  24.559   4.180
 2361CHOL    R126927  20.436  24.818   4.472
 2361CHOL    R226928  20.646  24.546   4.527
 2361CHOL    R326929  20.460  24.918   4.888
 2361CHOL    R426930  20.704  24.653   4.812
 2361CHOL    R526931  20.790  24.744   4.464
 2361CHOL    R626932  20.736  24.911   4.897
 2361CHOL    C126933  20.646  24.812   5.229
 2361CHOL    C226934  20.715  24.930   5.660
 2362CHOL   ROH26935  17.183  23.167   7.024
 2362CHOL    R126936  16.945  23.267   6.678
 2362CHOL    R226937  17.291  23.272   6.710
 2362CHOL    R326938  16.983  23.339   6.259
 2362CHOL    R426939  17.315  23.269   6.401
 2362CHOL    R526940  17.220  23.033   6.670
 2362CHOL    R626941  17.165  23.135   6.217
 2362CHOL    C126942  17.260  23.372   5.967
 2362CHOL    C226943  17.222  23.563   5.598
 2363CHOL   ROH26944  11.507  20.747   3.837
 2363CHOL    R126945  11.572  21.073   4.112
 2363CHOL    R226946  11.286  20.880   4.072
 2363CHOL    R326947  11.400  21.255   4.459
 2363CHOL    R426948  11.189  20.973   4.351
 2363CHOL    R526949  11.449  20.749   4.213
 2363CHOL    R626950  11.333  21.015   4.579
 2363CHOL    C126951  11.077  21.234   4.699
 2363CHOL    C226952  10.993  21.559   4.975
 2364CHOL   ROH26953  14.871  22.101   3.351
 2364CHOL    R126954  14.774  21.954   3.745
 2364CHOL    R226955  14.993  22.209   3.659
 2364CHOL    R326956  14.818  22.056   4.158
 2364CHOL    R426957  14.980  22.314   3.951
 2364CHOL    R526958  14.759  22.303   3.654
 2364CHOL    R626959  14.766  22.325   4.121
 2364CHOL    C126960  14.989  22.329   4.400
 2364CHOL    C226961  15.084  22.280   4.806
 2365CHOL   ROH26962  30.012  25.301   3.532
 2365CHOL    R126963  29.987  25.229   3.957
 2365CHOL    R226964  30.021  25.534   3.792
 2365CHOL    R326965  29.928  25.436   4.326
 2365CHOL    R426966  29.924  25.678   4.049
 2365CHOL    R526967  29.778  25.466   3.783
 2365CHOL    R626968  29.732  25.604   4.227
 2365CHOL    C126969  29.886  25.808   4.477
 2365CHOL    C226970  29.749  25.819   4.919
 2366CHOL   ROH26971   1.103  18.523   7.268
 2366CHOL    R126972   1.313  18.594   6.898
 2366CHOL    R226973   0.974  18.532   6.944
 2366CHOL    R326974   1.240  18.684   6.486
 2366CHOL    R426975   0.918  18.650   6.663
 2366CHOL    R526976   1.017  18.775   6.997
 2366CHOL    R626977   1.035  18.863   6.538
 2366CHOL    C126978   0.940  18.729   6.221
 2366CHOL    C226979   1.150  18.766   5.848
 2367CHOL   ROH26980   1.777  10.170   7.373
 2367CHOL    R126981   1.513   9.946   7.116
 2367CHOL    R226982   1.707  10.223   7.035
 2367CHOL    R326983   1.416   9.896   6.702
 2367CHOL    R426984   1.680  10.151   6.735
 2367CHOL    R526985   1.857  10.020   7.033
 2367CHOL    R626986   1.679   9.905   6.616
 2367CHOL    C126987   1.504  10.042   6.337
 2367CHOL    C226988   1.164   9.936   6.080
 2368CHOL   ROH26989  13.489  19.397   5.343
 2368CHOL    R126990  13.763  19.670   5.151
 2368CHOL    R226991  13.595  19.710   5.453
 2368CHOL    R326992  13.990  20.023   5.232
 2368CHOL    R426993  13.798  19.931   5.532
 2368CHOL    R526994  13.796  19.563   5.494
 2368CHOL    R626995  14.067  19.943   5.485
 2368CHOL    C126996  14.055  20.299   5.518
 2368CHOL    C226997  14.391  20.590   5.498
 2369CHOL   ROH26998  17.615  21.951   3.776
 2369CHOL    R126999  17.444  22.200   4.083
 2369CHOL    R227000  17.666  21.935   4.120
 2369CHOL    R327001  17.491  22.295   4.498
 2369CHOL    R427002  17.739  22.040   4.403
 2369CHOL    R527003  17.798  22.139   4.051
 2369CHOL    R627004  17.767  22.298   4.489
 2369CHOL    C127005  17.703  22.191   4.824
 2369CHOL    C227006  17.682  22.294   5.246
 2370CHOL   ROH27007  35.070  18.027   4.710
 2370CHOL    R127008  34.885  18.008   5.099
 2370CHOL    R227009  35.215  17.937   5.014
 2370CHOL    R327010  34.987  17.974   5.513
 2370CHOL    R427011  35.295  17.967   5.312
 2370CHOL    R527012  35.192  18.187   5.033
 2370CHOL    R627013  35.203  18.145   5.498
 2370CHOL    C127014  35.302  17.921   5.759
 2370CHOL    C227015  35.111  17.587   5.981
 2371CHOL   ROH27016   3.208  28.946   6.872
 2371CHOL    R127017   3.311  28.909   6.455
 2371CHOL    R227018   3.025  29.050   6.594
 2371CHOL    R327019   3.193  29.052   6.070
 2371CHOL    R427020   2.972  29.197   6.326
 2371CHOL    R527021   3.210  29.220   6.608
 2371CHOL    R627022   3.150  29.312   6.154
 2371CHOL    C127023   2.914  29.279   5.888
 2371CHOL    C227024   2.847  29.472   5.490
 2372CHOL   ROH27025   3.770  20.646   6.961
 2372CHOL    R127026   3.712  20.525   6.551
 2372CHOL    R227027   3.493  20.701   6.756
 2372CHOL    R327028   3.454  20.596   6.217
 2372CHOL    R427029   3.339  20.796   6.505
 2372CHOL    R527030   3.664  20.864   6.668
 2372CHOL    R627031   3.436  20.869   6.260
 2372CHOL    C127032   3.118  20.794   6.113
 2372CHOL    C227033   2.835  20.736   5.783
 2373CHOL   ROH27034   0.930  23.975   4.327
 2373CHOL    R127035   0.755  24.097   4.702
 2373CHOL    R227036   0.880  23.784   4.615
 2373CHOL    R327037   0.713  23.965   5.107
 2373CHOL    R427038   0.899  23.712   4.915
 2373CHOL    R527039   1.075  23.932   4.675
 2373CHOL    R627040   0.971  23.869   5.127
 2373CHOL    C127041   0.793  23.651   5.348
 2373CHOL    C227042   0.678  23.405   5.689
 2374CHOL   ROH27043   7.103  25.269   3.707
 2374CHOL    R127044   7.183  25.257   4.130
 2374CHOL    R227045   6.876  25.233   3.969
 2374CHOL    R327046   6.995  25.158   4.501
 2374CHOL    R427047   6.755  25.110   4.226
 2374CHOL    R527048   6.988  25.008   3.957
 2374CHOL    R627049   6.867  24.933   4.403
 2374CHOL    C127050   6.640  25.045   4.656
 2374CHOL    C227051   6.612  25.038   5.115
 2375CHOL   ROH27052  18.425  24.635   4.293
 2375CHOL    R127053  18.573  24.597   4.696
 2375CHOL    R227054  18.501  24.344   4.469
 2375CHOL    R327055  18.746  24.309   4.961
 2375CHOL    R427056  18.674  24.149   4.637
 2375CHOL    R527057  18.728  24.438   4.411
 2375CHOL    R627058  18.909  24.196   4.768
 2375CHOL    C127059  18.843  23.918   4.983
 2375CHOL    C227060  19.164  23.800   5.238
 2376CHOL   ROH27061  25.931  23.796   3.454
 2376CHOL    R127062  25.828  23.836   3.871
 2376CHOL    R227063  26.139  23.877   3.721
 2376CHOL    R327064  25.987  23.985   4.239
 2376CHOL    R427065  26.235  24.034   3.971
 2376CHOL    R527066  26.007  24.088   3.684
 2376CHOL    R627067  26.097  24.212   4.126
 2376CHOL    C127068  26.321  24.146   4.397
 2376CHOL    C227069  26.534  24.143   4.774
 2377CHOL   ROH27070   8.971  25.522   6.458
 2377CHOL    R127071   8.640  25.675   6.228
 2377CHOL    R227072   8.960  25.594   6.117
 2377CHOL    R327073   8.516  25.732   5.822
 2377CHOL    R427074   8.852  25.582   5.827
 2377CHOL    R527075   8.827  25.380   6.136
 2377CHOL    R627076   8.613  25.488   5.735
 2377CHOL    C127077   8.646  25.692   5.443
 2377CHOL    C227078   8.477  26.009   5.198
 2378CHOL   ROH27079  35.413  27.204   3.803
 2378CHOL    R127080  35.781  27.303   4.004
 2378CHOL    R227081  35.467  27.251   4.144
 2378CHOL    R327082  35.953  27.317   4.395
 2378CHOL    R427083  35.602  27.207   4.420
 2378CHOL    R527084  35.571  27.025   4.098
 2378CHOL    R627085  35.837  27.081   4.479
 2378CHOL    C127086  35.858  27.266   4.784
 2378CHOL    C227087  36.147  27.446   5.047
 2379CHOL   ROH27088  27.257   4.277   4.179
 2379CHOL    R127089  27.592   4.334   4.445
 2379CHOL    R227090  27.256   4.402   4.505
 2379CHOL    R327091  27.680   4.413   4.856
 2379CHOL    R427092  27.315   4.404   4.809
 2379CHOL    R527093  27.293   4.154   4.537
 2379CHOL    R627094  27.483   4.245   4.954
 2379CHOL    C127095  27.501   4.497   5.208
 2379CHOL    C227096  27.679   4.689   5.582
 2380CHOL   ROH27097  30.262   9.269   6.953
 2380CHOL    R127098  30.195   8.973   6.646
 2380CHOL    R227099  30.187   9.320   6.616
 2380CHOL    R327100  30.163   8.937   6.221
 2380CHOL    R427101  30.220   9.290   6.309
 2380CHOL    R527102  30.428   9.246   6.612
 2380CHOL    R627103  30.371   9.112   6.168
 2380CHOL    C127104  30.158   9.158   5.884
 2380CHOL    C227105  30.109   8.992   5.492
 2381CHOL   ROH27106  22.294  20.033   6.914
 2381CHOL    R127107  22.445  19.656   6.769
 2381CHOL    R227108  22.321  19.923   6.584
 2381CHOL    R327109  22.570  19.465   6.408
 2381CHOL    R427110  22.460  19.809   6.333
 2381CHOL    R527111  22.559  19.976   6.648
 2381CHOL    R627112  22.704  19.687   6.310
 2381CHOL    C127113  22.595  19.527   6.010
 2381CHOL    C227114  22.428  19.158   5.851
 2382CHOL   ROH27115  16.825  17.764   3.880
 2382CHOL    R127116  17.024  17.949   4.215
 2382CHOL    R227117  16.693  17.844   4.192
 2382CHOL    R327118  16.969  18.024   4.633
 2382CHOL    R427119  16.674  17.847   4.502
 2382CHOL    R527120  16.836  17.641   4.239
 2382CHOL    R627121  16.861  17.775   4.687
 2382CHOL    C127122  16.700  17.981   4.930
 2382CHOL    C227123  16.727  18.029   5.356
 2383CHOL   ROH27124  26.710  19.755   6.789
 2383CHOL    R127125  26.819  19.581   6.409
 2383CHOL    R227126  26.547  19.786   6.482
 2383CHOL    R327127  26.728  19.611   5.992
 2383CHOL    R427128  26.519  19.849   6.180
 2383CHOL    R527129  26.751  19.933   6.456
 2383CHOL    R627130  26.714  19.887   5.992
 2383CHOL    C127131  26.482  19.799   5.735
 2383CHOL    C227132  26.349  19.671   5.321
 2384CHOL   ROH27133   6.918  29.038   6.446
 2384CHOL    R127134   6.828  28.913   6.042
 2384CHOL    R227135   6.800  29.232   6.181
 2384CHOL    R327136   6.746  29.076   5.655
 2384CHOL    R427137   6.796  29.351   5.895
 2384CHOL    R527138   7.042  29.193   6.122
 2384CHOL    R627139   6.937  29.276   5.674
 2384CHOL    C127140   6.690  29.427   5.465
 2384CHOL    C227141   6.774  29.533   5.060
 2385CHOL   ROH27142  15.445   2.158   6.990
 2385CHOL    R127143  15.638   1.946   6.668
 2385CHOL    R227144  15.343   2.129   6.657
 2385CHOL    R327145  15.628   1.907   6.242
 2385CHOL    R427146  15.369   2.146   6.349
 2385CHOL    R527147  15.536   2.291   6.646
 2385CHOL    R627148  15.592   2.178   6.196
 2385CHOL    C127149  15.422   2.030   5.918
 2385CHOL    C227150  15.447   1.951   5.472
 2386CHOL   ROH27151  34.477  21.343   7.375
 2386CHOL    R127152  34.270  21.407   7.002
 2386CHOL    R227153  34.550  21.573   7.124
 2386CHOL    R327154  34.318  21.606   6.626
 2386CHOL    R427155  34.612  21.671   6.837
 2386CHOL    R527156  34.626  21.354   7.026
 2386CHOL    R627157  34.585  21.540   6.599
 2386CHOL    C127158  34.567  21.853   6.428
 2386CHOL    C227159  34.455  22.218   6.234
 2387CHOL   ROH27160  17.549  35.799   4.275
 2387CHOL    R127161  17.213  36.044   4.389
 2387CHOL    R227162  17.361  35.786   4.568
 2387CHOL    R327163  16.974  36.142   4.729
 2387CHOL    R427164  17.228  35.893   4.826
 2387CHOL    R527165  17.502  35.993   4.598
 2387CHOL    R627166  17.187  36.152   4.905
 2387CHOL    C127167  16.920  36.044   5.117
 2387CHOL    C227168  16.692  36.290   5.378
 2388CHOL   ROH27169  18.448  11.093   7.190
 2388CHOL    R127170  18.528  11.232   6.789
 2388CHOL    R227171  18.451  10.909   6.894
 2388CHOL    R327172  18.493  11.106   6.382
 2388CHOL    R427173  18.373  10.837   6.603
 2388CHOL    R527174  18.235  11.040   6.880
 2388CHOL    R627175  18.245  10.988   6.415
 2388CHOL    C127176  18.389  10.788   6.156
 2388CHOL    C227177  18.570  10.715   5.775
 2389CHOL   ROH27178  23.584   2.752   6.929
 2389CHOL    R127179  23.724   2.515   6.597
 2389CHOL    R227180  23.540   2.810   6.588
 2389CHOL    R327181  23.773   2.535   6.173
 2389CHOL    R427182  23.624   2.849   6.293
 2389CHOL    R527183  23.782   2.870   6.627
 2389CHOL    R627184  23.863   2.797   6.172
 2389CHOL    C127185  23.698   2.773   5.856
 2389CHOL    C227186  23.923   2.687   5.498
 2390CHOL   ROH27187  11.527   4.085   6.823
 2390CHOL    R127188  11.447   3.892   6.446
 2390CHOL    R227189  11.580   4.208   6.501
 2390CHOL    R327190  11.531   3.930   6.029
 2390CHOL    R427191  11.688   4.209   6.211
 2390CHOL    R527192  11.765   4.039   6.531
 2390CHOL    R627193  11.795   4.004   6.065
 2390CHOL    C127194  11.710   4.175   5.763
 2390CHOL    C227195  11.627   4.192   5.341
 2391CHOL   ROH27196   5.763   8.849   3.798
 2391CHOL    R127197   5.631   8.969   4.191
 2391CHOL    R227198   5.931   8.818   4.102
 2391CHOL    R327199   5.780   9.029   4.587
 2391CHOL    R427200   6.053   8.912   4.371
 2391CHOL    R527201   5.949   9.064   4.050
 2391CHOL    R627202   6.016   9.147   4.505
 2391CHOL    C127203   6.113   8.987   4.810
 2391CHOL    C227204   6.033   8.847   5.183
 2392CHOL   ROH27205   8.924  12.370   6.778
 2392CHOL    R127206   8.910  12.603   6.414
 2392CHOL    R227207   9.139  12.357   6.503
 2392CHOL    R327208   9.076  12.614   6.020
 2392CHOL    R427209   9.219  12.329   6.205
 2392CHOL    R527210   8.931  12.242   6.420
 2392CHOL    R627211   9.062  12.340   5.982
 2392CHOL    C127212   9.348  12.429   5.786
 2392CHOL    C227213   9.617  12.559   5.464
 2393CHOL   ROH27214  18.760  34.578   7.095
 2393CHOL    R127215  18.992  34.613   6.733
 2393CHOL    R227216  18.764  34.365   6.819
 2393CHOL    R327217  19.017  34.451   6.337
 2393CHOL    R427218  18.744  34.285   6.520
 2393CHOL    R527219  18.634  34.565   6.737
 2393CHOL    R627220  18.743  34.445   6.298
 2393CHOL    C127221  18.855  34.168   6.100
 2393CHOL    C227222  18.985  34.108   5.705
 2394CHOL   ROH27223   9.187  13.905   4.186
 2394CHOL    R127224   9.063  13.803   4.586
 2394CHOL    R227225   9.019  13.619   4.294
 2394CHOL    R327226   8.920  13.471   4.815
 2394CHOL    R427227   8.969  13.366   4.466
 2394CHOL    R527228   9.255  13.582   4.374
 2394CHOL    R627229   9.090  13.287   4.697
 2394CHOL    C127230   8.805  13.086   4.777
 2394CHOL    C227231   8.733  12.797   5.079
 2395CHOL   ROH27232  18.811  27.629   7.348
 2395CHOL    R127233  19.018  27.484   6.998
 2395CHOL    R227234  18.676  27.524   7.044
 2395CHOL    R327235  18.951  27.400   6.584
 2395CHOL    R427236  18.637  27.516   6.737
 2395CHOL    R527237  18.774  27.750   6.990
 2395CHOL    R627238  18.794  27.623   6.540
 2395CHOL    C127239  18.659  27.388   6.307
 2395CHOL    C227240  18.758  27.101   6.021
 2396CHOL   ROH27241  15.294   4.774   4.207
 2396CHOL    R127242  15.461   4.834   4.600
 2396CHOL    R227243  15.130   4.767   4.515
 2396CHOL    R327244  15.363   4.785   5.013
 2396CHOL    R427245  15.077   4.680   4.807
 2396CHOL    R527246  15.257   4.549   4.511
 2396CHOL    R627247  15.238   4.541   4.978
 2396CHOL    C127248  15.060   4.678   5.256
 2396CHOL    C227249  15.174   4.633   5.656
 2397CHOL   ROH27250  22.651  18.489   4.801
 2397CHOL    R127251  22.590  18.822   5.068
 2397CHOL    R227252  22.382  18.549   5.015
 2397CHOL    R327253  22.343  18.945   5.395
 2397CHOL    R427254  22.239  18.610   5.283
 2397CHOL    R527255  22.566  18.477   5.172
 2397CHOL    R627256  22.345  18.698   5.519
 2397CHOL    C127257  22.025  18.827   5.613
 2397CHOL    C227258  21.801  19.010   5.946
 2398CHOL   ROH27259  15.119  24.239   7.296
 2398CHOL    R127260  15.070  23.957   6.974
 2398CHOL    R227261  15.047  24.304   6.961
 2398CHOL    R327262  15.047  23.941   6.547
 2398CHOL    R427263  15.086  24.291   6.654
 2398CHOL    R527264  15.291  24.242   6.958
 2398CHOL    R627265  15.247  24.128   6.506
 2398CHOL    C127266  15.037  24.179   6.221
 2398CHOL    C227267  15.020  24.077   5.800
 2399CHOL   ROH27268  19.219  31.572   7.100
 2399CHOL    R127269  19.237  31.659   6.678
 2399CHOL    R227270  19.302  31.357   6.838
 2399CHOL    R327271  19.262  31.462   6.299
 2399CHOL    R427272  19.266  31.210   6.568
 2399CHOL    R527273  19.052  31.381   6.817
 2399CHOL    R627274  19.087  31.259   6.367
 2399CHOL    C127275  19.305  31.096   6.135
 2399CHOL    C227276  19.572  31.009   5.789
 2400CHOL   ROH27277  28.282  14.055   6.928
 2400CHOL    R127278  28.265  13.756   6.618
 2400CHOL    R227279  28.387  14.082   6.597
 2400CHOL    R327280  28.418  13.676   6.226
 2400CHOL    R427281  28.542  14.003   6.340
 2400CHOL    R527282  28.565  13.938   6.704
 2400CHOL    R627283  28.672  13.770   6.281
 2400CHOL    C127284  28.638  13.841   5.932
 2400CHOL    C227285  28.845  13.741   5.554
 2401CHOL   ROH27286  14.308  34.434   4.039
 2401CHOL    R127287  14.450  34.158   4.338
 2401CHOL    R227288  14.354  34.490   4.380
 2401CHOL    R327289  14.478  34.115   4.763
 2401CHOL    R427290  14.323  34.439   4.684
 2401CHOL    R527291  14.145  34.349   4.372
 2401CHOL    R627292  14.226  34.219   4.813
 2401CHOL    C127293  14.407  34.313   5.107
 2401CHOL    C227294  14.593  34.203   5.480
 2402CHOL   ROH27295   5.419  30.489   7.435
 2402CHOL    R127296   5.176  30.689   7.139
 2402CHOL    R227297   5.502  30.572   7.106
 2402CHOL    R327298   5.165  30.772   6.720
 2402CHOL    R427299   5.471  30.582   6.798
 2402CHOL    R527300   5.346  30.376   7.079
 2402CHOL    R627301   5.253  30.521   6.644
 2402CHOL    C127302   5.382  30.728   6.382
 2402CHOL    C227303   5.403  30.909   5.978
 2403CHOL   ROH27304  33.626   2.103   3.764
 2403CHOL    R127305  33.548   1.816   4.076
 2403CHOL    R227306  33.856   1.923   3.955
 2403CHOL    R327307  33.746   1.605   4.391
 2403CHOL    R427308  33.990   1.816   4.213
 2403CHOL    R527309  33.770   2.098   4.116
 2403CHOL    R627310  33.899   1.822   4.471
 2403CHOL    C127311  34.111   1.545   4.551
 2403CHOL    C227312  34.260   1.324   4.905
 2404CHOL   ROH27313   5.947  26.229   5.067
 2404CHOL    R127314   5.909  26.544   5.360
 2404CHOL    R227315   5.719  26.493   5.073
 2404CHOL    R327316   5.641  26.853   5.482
 2404CHOL    R427317   5.500  26.678   5.191
 2404CHOL    R527318   5.633  26.338   5.252
 2404CHOL    R627319   5.413  26.700   5.448
 2404CHOL    C127320   5.293  27.030   5.378
 2404CHOL    C227321   4.947  27.294   5.559
 2405CHOL   ROH27322   7.971   1.308   6.898
 2405CHOL    R127323   7.675   1.421   6.606
 2405CHOL    R227324   8.021   1.432   6.576
 2405CHOL    R327325   7.637   1.516   6.191
 2405CHOL    R427326   7.990   1.446   6.268
 2405CHOL    R527327   7.947   1.194   6.536
 2405CHOL    R627328   7.811   1.318   6.106
 2405CHOL    C127329   7.857   1.570   5.857
 2405CHOL    C227330   7.910   1.749   5.486
 2406CHOL   ROH27331  23.408   8.357   4.135
 2406CHOL    R127332  23.552   8.691   4.368
 2406CHOL    R227333  23.351   8.426   4.472
 2406CHOL    R327334  23.588   8.821   4.774
 2406CHOL    R427335  23.425   8.492   4.766
 2406CHOL    R527336  23.590   8.346   4.469
 2406CHOL    R627337  23.663   8.573   4.871
 2406CHOL    C127338  23.491   8.715   5.151
 2406CHOL    C227339  23.614   8.955   5.507
 2407CHOL   ROH27340  28.755  32.525   6.294
 2407CHOL    R127341  28.867  32.822   6.001
 2407CHOL    R227342  28.750  32.499   5.946
 2407CHOL    R327343  28.838  32.903   5.583
 2407CHOL    R427344  28.680  32.579   5.655
 2407CHOL    R527345  28.552  32.646   5.996
 2407CHOL    R627346  28.577  32.814   5.560
 2407CHOL    C127347  28.711  32.740   5.237
 2407CHOL    C227348  29.024  32.762   4.918
 2408CHOL   ROH27349  29.929  20.345   3.533
 2408CHOL    R127350  29.880  20.357   3.961
 2408CHOL    R227351  29.834  20.615   3.732
 2408CHOL    R327352  29.715  20.604   4.269
 2408CHOL    R427353  29.667  20.768   3.943
 2408CHOL    R527354  29.628  20.470   3.728
 2408CHOL    R627355  29.489  20.672   4.126
 2408CHOL    C127356  29.540  20.962   4.328
 2408CHOL    C227357  29.487  21.161   4.699
 2409CHOL   ROH27358  19.424  26.492   7.032
 2409CHOL    R127359  19.402  26.580   6.610
 2409CHOL    R227360  19.624  26.368   6.774
 2409CHOL    R327361  19.548  26.440   6.233
 2409CHOL    R427362  19.688  26.232   6.503
 2409CHOL    R527363  19.406  26.244   6.744
 2409CHOL    R627364  19.520  26.172   6.296
 2409CHOL    C127365  19.799  26.168   6.073
 2409CHOL    C227366  19.830  26.273   5.648
 2410CHOL   ROH27367  33.303  31.219   7.344
 2410CHOL    R127368  33.160  31.399   6.979
 2410CHOL    R227369  33.359  31.116   7.016
 2410CHOL    R327370  33.123  31.317   6.561
 2410CHOL    R427371  33.285  31.031   6.727
 2410CHOL    R527372  33.120  31.049   7.058
 2410CHOL    R627373  33.047  31.053   6.596
 2410CHOL    C127374  33.219  31.041   6.283
 2410CHOL    C227375  33.192  31.172   5.844
 2411CHOL   ROH27376  24.418  11.477   6.955
 2411CHOL    R127377  24.693  11.800   6.876
 2411CHOL    R227378  24.626  11.521   6.679
 2411CHOL    R327379  24.927  11.966   6.559
 2411CHOL    R427380  24.749  11.668   6.436
 2411CHOL    R527381  24.442  11.689   6.641
 2411CHOL    R627382  24.732  11.931   6.366
 2411CHOL    C127383  25.033  11.900   6.175
 2411CHOL    C227384  25.230  12.222   5.931
 2412CHOL   ROH27385   4.173  12.378   4.482
 2412CHOL    R127386   4.130  11.998   4.681
 2412CHOL    R227387   4.151  12.314   4.824
 2412CHOL    R327388   4.035  11.832   5.064
 2412CHOL    R427389   4.029  12.200   5.085
 2412CHOL    R527390   3.914  12.281   4.743
 2412CHOL    R627391   3.832  12.013   5.117
 2412CHOL    C127392   3.957  11.940   5.444
 2412CHOL    C227393   3.900  11.749   5.808
 2413CHOL   ROH27394  22.368   8.141   7.120
 2413CHOL    R127395  22.333   8.219   6.697
 2413CHOL    R227396  22.602   8.079   6.869
 2413CHOL    R327397  22.524   8.126   6.326
 2413CHOL    R427398  22.709   7.966   6.601
 2413CHOL    R527399  22.429   7.899   6.834
 2413CHOL    R627400  22.571   7.861   6.390
 2413CHOL    C127401  22.846   7.936   6.174
 2413CHOL    C227402  23.083   8.110   5.823
 2414CHOL   ROH27403  11.581  13.050   7.173
 2414CHOL    R127404  11.876  13.024   6.860
 2414CHOL    R227405  11.554  12.894   6.862
 2414CHOL    R327406  11.915  12.919   6.447
 2414CHOL    R427407  11.566  12.870   6.553
 2414CHOL    R527408  11.538  13.139   6.806
 2414CHOL    R627409  11.677  13.039   6.371
 2414CHOL    C127410  11.704  12.769   6.138
 2414CHOL    C227411  11.961  12.725   5.807
 2415CHOL   ROH27412  19.412  33.419   7.046
 2415CHOL    R127413  19.675  33.620   6.770
 2415CHOL    R227414  19.486  33.333   6.716
 2415CHOL    R327415  19.775  33.630   6.354
 2415CHOL    R427416  19.515  33.376   6.411
 2415CHOL    R527417  19.334  33.533   6.692
 2415CHOL    R627418  19.513  33.608   6.267
 2415CHOL    C127419  19.694  33.446   6.004
 2415CHOL    C227420  19.984  33.530   5.666
 2416CHOL   ROH27421   0.118  27.584   6.758
 2416CHOL    R127422  -0.139  27.378   6.479
 2416CHOL    R227423  -0.114  27.721   6.536
 2416CHOL    R327424  -0.392  27.454   6.143
 2416CHOL    R427425  -0.250  27.772   6.263
 2416CHOL    R527426   0.077  27.652   6.387
 2416CHOL    R627427  -0.221  27.638   6.027
 2416CHOL    C127428  -0.542  27.756   5.921
 2416CHOL    C227429  -0.957  27.747   5.787
 2417CHOL   ROH27430  27.772  23.305   3.622
 2417CHOL    R127431  27.925  23.409   4.012
 2417CHOL    R227432  27.636  23.525   3.856
 2417CHOL    R327433  27.806  23.605   4.373
 2417CHOL    R427434  27.529  23.617   4.132
 2417CHOL    R527435  27.586  23.298   3.954
 2417CHOL    R627436  27.552  23.497   4.375
 2417CHOL    C127437  27.501  23.812   4.535
 2417CHOL    C227438  27.340  23.821   4.958
 2418CHOL   ROH27439   8.677   3.644   6.683
 2418CHOL    R127440   8.720   3.983   6.420
 2418CHOL    R227441   8.692   3.647   6.335
 2418CHOL    R327442   8.686   4.090   6.007
 2418CHOL    R427443   8.613   3.731   6.047
 2418CHOL    R527444   8.461   3.735   6.384
 2418CHOL    R627445   8.458   3.940   5.964
 2418CHOL    C127446   8.617   3.930   5.644
 2418CHOL    C227447   8.417   4.097   5.272
 2419CHOL   ROH27448  10.087  25.012   6.395
 2419CHOL    R127449  10.309  25.033   6.026
 2419CHOL    R227450  10.046  24.820   6.106
 2419CHOL    R327451  10.294  24.897   5.621
 2419CHOL    R427452  10.003  24.766   5.804
 2419CHOL    R527453   9.948  25.044   6.043
 2419CHOL    R627454  10.021  24.938   5.593
 2419CHOL    C127455  10.079  24.661   5.374
 2419CHOL    C227456  10.061  24.522   4.971
 2420CHOL   ROH27457   6.507  33.491   6.592
 2420CHOL    R127458   6.278  33.806   6.405
 2420CHOL    R227459   6.401  33.514   6.261
 2420CHOL    R327460   6.058  33.889   6.048
 2420CHOL    R427461   6.199  33.550   6.028
 2420CHOL    R527462   6.189  33.456   6.386
 2420CHOL    R627463   5.941  33.639   6.034
 2420CHOL    C127464   5.965  33.730   5.690
 2420CHOL    C227465   5.739  33.875   5.341
 2421CHOL   ROH27466  27.721  18.723   3.644
 2421CHOL    R127467  27.754  19.153   3.659
 2421CHOL    R227468  27.882  18.920   3.883
 2421CHOL    R327469  27.970  19.463   3.860
 2421CHOL    R427470  28.077  19.136   3.991
 2421CHOL    R527471  28.037  18.931   3.685
 2421CHOL    R627472  28.212  19.330   3.854
 2421CHOL    C127473  28.239  19.522   4.155
 2421CHOL    C227474  28.251  19.826   4.455
 2422CHOL   ROH27475  34.616  15.090   3.962
 2422CHOL    R127476  34.583  15.307   4.334
 2422CHOL    R227477  34.509  14.972   4.272
 2422CHOL    R327478  34.528  15.240   4.752
 2422CHOL    R427479  34.524  14.917   4.576
 2422CHOL    R527480  34.758  14.993   4.300
 2422CHOL    R627481  34.695  15.020   4.763
 2422CHOL    C127482  34.457  14.947   5.020
 2422CHOL    C227483  34.534  14.889   5.448
 2423CHOL   ROH27484  19.045  24.172   4.232
 2423CHOL    R127485  19.150  23.917   4.564
 2423CHOL    R227486  19.336  24.176   4.424
 2423CHOL    R327487  19.433  23.888   4.883
 2423CHOL    R427488  19.506  24.188   4.683
 2423CHOL    R527489  19.163  24.278   4.577
 2423CHOL    R627490  19.428  24.158   4.943
 2423CHOL    C127491  19.763  24.067   5.032
 2423CHOL    C227492  19.884  24.086   5.427
 2424CHOL   ROH27493   7.442  11.137   6.578
 2424CHOL    R127494   7.378  11.409   6.249
 2424CHOL    R227495   7.427  11.064   6.237
 2424CHOL    R327496   7.285  11.409   5.832
 2424CHOL    R427497   7.306  11.061   5.951
 2424CHOL    R527498   7.186  11.107   6.299
 2424CHOL    R627499   7.098  11.205   5.850
 2424CHOL    C127500   7.227  11.159   5.520
 2424CHOL    C227501   6.978  11.319   5.199
 2425CHOL   ROH27502  21.179  10.919   7.207
 2425CHOL    R127503  21.021  10.693   6.875
 2425CHOL    R227504  20.892  10.982   7.019
 2425CHOL    R327505  20.732  10.723   6.561
 2425CHOL    R427506  20.723  11.030   6.764
 2425CHOL    R527507  21.079  11.049   6.864
 2425CHOL    R627508  20.789  10.987   6.502
 2425CHOL    C127509  20.442  10.964   6.419
 2425CHOL    C227510  20.190  10.766   6.084
 2426CHOL   ROH27511  33.519  22.889   6.711
 2426CHOL    R127512  33.729  22.658   6.413
 2426CHOL    R227513  33.514  22.927   6.364
 2426CHOL    R327514  33.832  22.666   5.998
 2426CHOL    R427515  33.631  22.964   6.079
 2426CHOL    R527516  33.740  23.018   6.429
 2426CHOL    R627517  33.889  22.937   5.994
 2426CHOL    C127518  33.772  22.879   5.661
 2426CHOL    C227519  33.989  22.741   5.316
 2427CHOL   ROH27520  21.189  34.086   4.144
 2427CHOL    R127521  20.920  34.273   4.423
 2427CHOL    R227522  21.179  34.052   4.491
 2427CHOL    R327523  20.871  34.342   4.843
 2427CHOL    R427524  21.177  34.146   4.786
 2427CHOL    R527525  21.279  34.281   4.457
 2427CHOL    R627526  21.139  34.396   4.888
 2427CHOL    C127527  21.037  34.253   5.199
 2427CHOL    C227528  21.075  34.478   5.588
 2428CHOL   ROH27529   2.308  35.033   4.034
 2428CHOL    R127530   2.548  35.291   4.282
 2428CHOL    R227531   2.226  35.173   4.342
 2428CHOL    R327532   2.562  35.451   4.679
 2428CHOL    R427533   2.261  35.242   4.643
 2428CHOL    R527534   2.389  34.990   4.403
 2428CHOL    R627535   2.482  35.216   4.801
 2428CHOL    C127536   2.351  35.465   5.022
 2428CHOL    C227537   2.473  35.597   5.402
 2429CHOL   ROH27538  10.067  15.944   7.500
 2429CHOL    R127539  10.306  16.208   7.257
 2429CHOL    R227540  10.138  15.920   7.160
 2429CHOL    R327541  10.395  16.294   6.848
 2429CHOL    R427542  10.157  16.014   6.865
 2429CHOL    R527543   9.971  16.108   7.171
 2429CHOL    R627544  10.133  16.265   6.762
 2429CHOL    C127545  10.319  16.164   6.474
 2429CHOL    C227546  10.407  16.240   6.028
 2430CHOL   ROH27547  20.807  29.872   7.130
 2430CHOL    R127548  21.161  30.016   6.930
 2430CHOL    R227549  20.849  29.947   6.792
 2430CHOL    R327550  21.286  30.187   6.559
 2430CHOL    R427551  20.924  30.120   6.546
 2430CHOL    R527552  20.837  30.174   6.902
 2430CHOL    R627553  21.066  30.353   6.535
 2430CHOL    C127554  21.148  30.286   6.193
 2430CHOL    C227555  21.369  30.583   5.946
 2431CHOL   ROH27556  19.064  21.078   3.954
 2431CHOL    R127557  18.904  21.371   4.227
 2431CHOL    R227558  18.857  21.026   4.230
 2431CHOL    R327559  18.708  21.399   4.607
 2431CHOL    R427560  18.767  21.045   4.526
 2431CHOL    R527561  19.082  21.075   4.334
 2431CHOL    R627562  18.863  21.203   4.727
 2431CHOL    C127563  18.552  21.170   4.900
 2431CHOL    C227564  18.272  21.269   5.191
 2432CHOL   ROH27565  30.055   2.685   4.064
 2432CHOL    R127566  29.955   2.432   4.399
 2432CHOL    R227567  30.030   2.771   4.401
 2432CHOL    R327568  29.843   2.454   4.811
 2432CHOL    R427569  29.898   2.794   4.681
 2432CHOL    R527570  29.789   2.745   4.330
 2432CHOL    R627571  29.674   2.671   4.777
 2432CHOL    C127572  29.792   2.719   5.111
 2432CHOL    C227573  29.602   2.689   5.502
 2433CHOL   ROH27574  18.910   2.106   3.688
 2433CHOL    R127575  18.820   1.878   4.043
 2433CHOL    R227576  18.991   2.180   4.019
 2433CHOL    R327577  18.819   1.914   4.470
 2433CHOL    R427578  18.940   2.229   4.321
 2433CHOL    R527579  18.744   2.229   4.007
 2433CHOL    R627580  18.719   2.172   4.470
 2433CHOL    C127581  18.920   2.169   4.766
 2433CHOL    C227582  18.973   2.166   5.199
 2434CHOL   ROH27583   8.517  18.898   6.920
 2434CHOL    R127584   8.689  19.142   6.609
 2434CHOL    R227585   8.502  18.850   6.575
 2434CHOL    R327586   8.672  19.199   6.185
 2434CHOL    R427587   8.446  18.924   6.280
 2434CHOL    R527588   8.342  19.041   6.615
 2434CHOL    R627589   8.397  19.169   6.169
 2434CHOL    C127590   8.505  19.046   5.851
 2434CHOL    C227591   8.520  19.166   5.431
 2435CHOL   ROH27592  24.797  15.525   4.098
 2435CHOL    R127593  24.783  15.254   4.433
 2435CHOL    R227594  24.896  15.583   4.427
 2435CHOL    R327595  24.818  15.251   4.859
 2435CHOL    R427596  24.867  15.594   4.735
 2435CHOL    R527597  24.644  15.587   4.440
 2435CHOL    R627598  24.675  15.485   4.895
 2435CHOL    C127599  24.902  15.492   5.172
 2435CHOL    C227600  25.054  15.259   5.518
 2436CHOL   ROH27601  25.581  18.074   7.100
 2436CHOL    R127602  25.553  18.308   6.739
 2436CHOL    R227603  25.839  18.184   6.893
 2436CHOL    R327604  25.789  18.430   6.403
 2436CHOL    R427605  25.995  18.223   6.628
 2436CHOL    R527606  25.734  17.996   6.761
 2436CHOL    R627607  25.912  18.184   6.371
 2436CHOL    C127608  26.164  18.409   6.255
 2436CHOL    C227609  26.275  18.631   5.884
 2437CHOL   ROH27610  14.223  35.543   6.579
 2437CHOL    R127611  14.155  35.830   6.264
 2437CHOL    R227612  14.336  35.534   6.249
 2437CHOL    R327613  14.193  35.873   5.840
 2437CHOL    R427614  14.315  35.540   5.940
 2437CHOL    R527615  14.092  35.476   6.228
 2437CHOL    R627616  14.105  35.617   5.783
 2437CHOL    C127617  14.331  35.680   5.513
 2437CHOL    C227618  14.138  35.672   5.132
 2438CHOL   ROH27619   4.568   0.817   3.694
 2438CHOL    R127620   4.348   0.803   4.065
 2438CHOL    R227621   4.683   0.726   4.010
 2438CHOL    R327622   4.411   0.770   4.487
 2438CHOL    R427623   4.736   0.758   4.314
 2438CHOL    R527624   4.662   0.977   4.025
 2438CHOL    R627625   4.631   0.938   4.490
 2438CHOL    C127626   4.703   0.715   4.760
 2438CHOL    C227627   4.594   0.511   5.128
 2439CHOL   ROH27628  17.352  25.227   7.272
 2439CHOL    R127629  17.148  25.279   6.896
 2439CHOL    R227630  17.483  25.338   6.969
 2439CHOL    R327631  17.228  25.343   6.481
 2439CHOL    R427632  17.546  25.330   6.666
 2439CHOL    R527633  17.454  25.090   6.933
 2439CHOL    R627634  17.443  25.168   6.472
 2439CHOL    C127635  17.532  25.410   6.224
 2439CHOL    C227636  17.525  25.572   5.802
 2440CHOL   ROH27637  31.163   3.048   3.929
 2440CHOL    R127638  30.961   2.777   4.197
 2440CHOL    R227639  31.297   2.863   4.193
 2440CHOL    R327640  31.020   2.568   4.565
 2440CHOL    R427641  31.324   2.759   4.483
 2440CHOL    R527642  31.171   3.048   4.309
 2440CHOL    R627643  31.147   2.779   4.691
 2440CHOL    C127644  31.300   2.496   4.846
 2440CHOL    C227645  31.204   2.193   5.145
 2441CHOL   ROH27646  19.812  17.170   6.912
 2441CHOL    R127647  19.727  17.442   6.587
 2441CHOL    R227648  19.947  17.172   6.590
 2441CHOL    R327649  19.787  17.484   6.166
 2441CHOL    R427650  19.944  17.172   6.280
 2441CHOL    R527651  19.713  17.082   6.555
 2441CHOL    R627652  19.737  17.218   6.109
 2441CHOL    C127653  19.970  17.308   5.853
 2441CHOL    C227654  20.084  17.519   5.504
 2442CHOL   ROH27655  18.479  30.792   7.070
 2442CHOL    R127656  18.166  30.818   6.774
 2442CHOL    R227657  18.491  30.701   6.734
 2442CHOL    R327658  18.069  30.681   6.381
 2442CHOL    R427659  18.403  30.556   6.475
 2442CHOL    R527660  18.355  30.517   6.840
 2442CHOL    R627661  18.169  30.426   6.421
 2442CHOL    C127662  18.224  30.475   6.071
 2442CHOL    C227663  18.085  30.464   5.644
 2443CHOL   ROH27664  26.440  29.439   3.421
 2443CHOL    R127665  26.375  29.205   3.777
 2443CHOL    R227666  26.484  29.535   3.753
 2443CHOL    R327667  26.340  29.249   4.201
 2443CHOL    R427668  26.406  29.578   4.050
 2443CHOL    R527669  26.233  29.534   3.725
 2443CHOL    R627670  26.191  29.482   4.188
 2443CHOL    C127671  26.370  29.524   4.494
 2443CHOL    C227672  26.408  29.328   4.901
 2444CHOL   ROH27673  27.726  27.810   6.264
 2444CHOL    R127674  27.973  27.791   5.911
 2444CHOL    R227675  27.626  27.797   5.930
 2444CHOL    R327676  27.949  27.835   5.486
 2444CHOL    R427677  27.614  27.883   5.633
 2444CHOL    R527678  27.709  28.034   5.957
 2444CHOL    R627679  27.778  28.053   5.495
 2444CHOL    C127680  27.683  27.895   5.189
 2444CHOL    C227681  27.825  27.987   4.784
 2445CHOL   ROH27682  21.890  23.159   4.076
 2445CHOL    R127683  21.668  23.183   4.445
 2445CHOL    R227684  21.970  23.021   4.386
 2445CHOL    R327685  21.710  23.109   4.864
 2445CHOL    R427686  22.023  23.018   4.691
 2445CHOL    R527687  22.018  23.266   4.417
 2445CHOL    R627688  21.968  23.209   4.878
 2445CHOL    C127689  21.970  22.959   5.134
 2445CHOL    C227690  21.927  22.984   5.551
 2446CHOL   ROH27691  21.567  31.191   5.018
 2446CHOL    R127692  21.928  31.173   4.782
 2446CHOL    R227693  21.897  31.166   5.129
 2446CHOL    R327694  22.344  31.084   4.819
 2446CHOL    R427695  22.183  31.049   5.148
 2446CHOL    R527696  21.847  30.935   5.041
 2446CHOL    R627697  22.306  30.866   4.987
 2446CHOL    C127698  22.625  30.989   5.094
 2446CHOL    C227699  23.037  31.035   4.907
 2447CHOL   ROH27700  26.465  12.834   3.682
 2447CHOL    R127701  26.512  12.999   4.077
 2447CHOL    R227702  26.338  12.713   3.983
 2447CHOL    R327703  26.454  12.897   4.489
 2447CHOL    R427704  26.347  12.616   4.277
 2447CHOL    R527705  26.584  12.655   3.995
 2447CHOL    R627706  26.548  12.638   4.461
 2447CHOL    C127707  26.309  12.605   4.725
 2447CHOL    C227708  26.279  12.596   5.170
 2448CHOL   ROH27709  31.631   6.115   7.047
 2448CHOL    R127710  31.732   6.380   6.722
 2448CHOL    R227711  31.615   6.053   6.704
 2448CHOL    R327712  31.688   6.418   6.298
 2448CHOL    R427713  31.533   6.103   6.409
 2448CHOL    R527714  31.417   6.205   6.746
 2448CHOL    R627715  31.426   6.327   6.294
 2448CHOL    C127716  31.549   6.220   5.975
 2448CHOL    C227717  31.781   6.368   5.621
 2449CHOL   ROH27718  10.287   0.426   6.625
 2449CHOL    R127719  10.557   0.436   6.289
 2449CHOL    R227720  10.238   0.299   6.303
 2449CHOL    R327721  10.564   0.371   5.866
 2449CHOL    R427722  10.225   0.305   5.994
 2449CHOL    R527723  10.214   0.548   6.272
 2449CHOL    R627724  10.320   0.493   5.820
 2449CHOL    C127725  10.331   0.247   5.561
 2449CHOL    C227726  10.432   0.006   5.219
 2450CHOL   ROH27727  16.766  27.935   3.806
 2450CHOL    R127728  16.435  28.014   4.071
 2450CHOL    R227729  16.738  27.859   4.145
 2450CHOL    R327730  16.337  28.019   4.487
 2450CHOL    R427731  16.687  27.914   4.446
 2450CHOL    R527732  16.776  28.108   4.143
 2450CHOL    R627733  16.577  28.133   4.566
 2450CHOL    C127734  16.491  27.933   4.850
 2450CHOL    C227735  16.389  27.795   5.278
 2451CHOL   ROH27736  25.637   2.211   7.061
 2451CHOL    R127737  25.929   2.201   6.744
 2451CHOL    R227738  25.589   2.131   6.725
 2451CHOL    R327739  25.956   2.180   6.318
 2451CHOL    R427740  25.602   2.171   6.418
 2451CHOL    R527741  25.617   2.382   6.722
 2451CHOL    R627742  25.745   2.354   6.273
 2451CHOL    C127743  25.728   2.139   5.988
 2451CHOL    C227744  25.874   2.211   5.570
 2452CHOL   ROH27745  10.786  14.835   3.906
 2452CHOL    R127746  10.591  14.698   4.266
 2452CHOL    R227747  10.878  14.892   4.237
 2452CHOL    R327748  10.589  14.764   4.688
 2452CHOL    R427749  10.842  14.981   4.532
 2452CHOL    R527750  10.679  15.043   4.206
 2452CHOL    R627751  10.613  15.039   4.668
 2452CHOL    C127752  10.780  14.970   4.977
 2452CHOL    C227753  10.712  14.954   5.405
 2453CHOL   ROH27754   1.950   4.832   3.993
 2453CHOL    R127755   2.270   4.979   4.243
 2453CHOL    R227756   1.927   5.012   4.291
 2453CHOL    R327757   2.339   5.142   4.632
 2453CHOL    R427758   1.979   5.077   4.589
 2453CHOL    R527759   1.994   4.782   4.367
 2453CHOL    R627760   2.163   4.970   4.760
 2453CHOL    C127761   2.144   5.264   4.963
 2453CHOL    C227762   2.390   5.408   5.315
 2454CHOL   ROH27763  17.244  23.745   6.971
 2454CHOL    R127764  17.048  23.658   6.597
 2454CHOL    R227765  17.284  23.904   6.663
 2454CHOL    R327766  17.075  23.746   6.179
 2454CHOL    R427767  17.340  23.926   6.359
 2454CHOL    R527768  17.406  23.685   6.632
 2454CHOL    R627769  17.351  23.729   6.170
 2454CHOL    C127770  17.281  23.971   5.916
 2454CHOL    C227771  17.291  24.073   5.485
 2455CHOL   ROH27772  15.591  34.982   6.900
 2455CHOL    R127773  15.478  34.885   6.495
 2455CHOL    R227774  15.593  35.189   6.619
 2455CHOL    R327775  15.505  35.040   6.097
 2455CHOL    R427776  15.663  35.277   6.330
 2455CHOL    R527777  15.792  35.039   6.583
 2455CHOL    R627778  15.765  35.129   6.125
 2455CHOL    C127779  15.630  35.363   5.890
 2455CHOL    C227780  15.668  35.495   5.465
 2456CHOL   ROH27781  17.206  22.248   7.144
 2456CHOL    R127782  17.095  22.221   6.728
 2456CHOL    R227783  17.370  22.384   6.868
 2456CHOL    R327784  17.253  22.292   6.337
 2456CHOL    R427785  17.505  22.384   6.589
 2456CHOL    R527786  17.423  22.137   6.853
 2456CHOL    R627787  17.504  22.191   6.396
 2456CHOL    C127788  17.578  22.440   6.149
 2456CHOL    C227789  17.610  22.331   5.756
 2457CHOL   ROH27790   4.818  33.077   6.852
 2457CHOL    R127791   4.789  32.831   6.499
 2457CHOL    R227792   4.634  33.136   6.562
 2457CHOL    R327793   4.651  32.846   6.094
 2457CHOL    R427794   4.584  33.169   6.258
 2457CHOL    R527795   4.872  33.182   6.491
 2457CHOL    R627796   4.745  33.102   6.048
 2457CHOL    C127797   4.459  33.087   5.834
 2457CHOL    C227798   4.190  32.861   5.560
 2458CHOL   ROH27799  25.844   8.801   4.001
 2458CHOL    R127800  25.886   8.463   4.267
 2458CHOL    R227801  25.876   8.802   4.348
 2458CHOL    R327802  25.867   8.364   4.682
 2458CHOL    R427803  25.808   8.725   4.641
 2458CHOL    R527804  25.639   8.723   4.311
 2458CHOL    R627805  25.648   8.524   4.734
 2458CHOL    C127806  25.822   8.532   5.046
 2458CHOL    C227807  25.768   8.229   5.357
 2459CHOL   ROH27808  24.389  30.686   6.744
 2459CHOL    R127809  24.252  30.406   6.446
 2459CHOL    R227810  24.229  30.753   6.442
 2459CHOL    R327811  24.113  30.394   6.041
 2459CHOL    R427812  24.182  30.743   6.136
 2459CHOL    R527813  24.462  30.690   6.372
 2459CHOL    R627814  24.296  30.580   5.949
 2459CHOL    C127815  24.017  30.634   5.732
 2459CHOL    C227816  23.920  30.412   5.383
 2460CHOL   ROH27817  35.950  21.493   3.992
 2460CHOL    R127818  36.172  21.246   4.267
 2460CHOL    R227819  35.939  21.494   4.341
 2460CHOL    R327820  36.181  21.134   4.680
 2460CHOL    R427821  35.908  21.375   4.625
 2460CHOL    R527822  35.813  21.284   4.279
 2460CHOL    R627823  35.906  21.113   4.704
 2460CHOL    C127824  36.004  21.213   5.033
 2460CHOL    C227825  35.997  20.900   5.325
 2461CHOL   ROH27826  29.867   0.882   7.019
 2461CHOL    R127827  29.751   1.089   6.658
 2461CHOL    R227828  30.028   0.885   6.709
 2461CHOL    R327829  29.840   1.103   6.240
 2461CHOL    R427830  30.057   0.854   6.402
 2461CHOL    R527831  29.829   0.736   6.670
 2461CHOL    R627832  29.862   0.828   6.212
 2461CHOL    C127833  30.090   0.948   5.965
 2461CHOL    C227834  30.037   0.924   5.520
 2462CHOL   ROH27835  19.617  14.183   7.050
 2462CHOL    R127836  19.834  14.315   6.702
 2462CHOL    R227837  19.702  14.000   6.765
 2462CHOL    R327838  19.926  14.195   6.302
 2462CHOL    R427839  19.719  13.936   6.462
 2462CHOL    R527840  19.514  14.148   6.685
 2462CHOL    R627841  19.672  14.098   6.248
 2462CHOL    C127842  19.877  13.888   6.044
 2462CHOL    C227843  20.180  13.985   5.758
 2463CHOL   ROH27844  34.235   8.130   7.048
 2463CHOL    R127845  34.231   7.898   6.684
 2463CHOL    R227846  34.339   8.226   6.729
 2463CHOL    R327847  34.385   7.903   6.285
 2463CHOL    R427848  34.496   8.206   6.462
 2463CHOL    R527849  34.523   8.072   6.806
 2463CHOL    R627850  34.635   7.996   6.359
 2463CHOL    C127851  34.597   8.133   6.031
 2463CHOL    C227852  34.777   8.132   5.634
 2464CHOL   ROH27853  33.385   7.795   3.415
 2464CHOL    R127854  33.053   7.784   3.690
 2464CHOL    R227855  33.392   7.750   3.761
 2464CHOL    R327856  32.968   7.799   4.109
 2464CHOL    R427857  33.332   7.816   4.058
 2464CHOL    R527858  33.342   7.996   3.735
 2464CHOL    R627859  33.156   7.995   4.163
 2464CHOL    C127860  33.151   7.809   4.469
 2464CHOL    C227861  33.113   7.525   4.806
 2465CHOL   ROH27862  15.669  24.701   3.813
 2465CHOL    R127863  15.710  24.531   4.207
 2465CHOL    R227864  15.731  24.866   4.114
 2465CHOL    R327865  15.721  24.647   4.619
 2465CHOL    R427866  15.683  24.947   4.409
 2465CHOL    R527867  15.487  24.804   4.130
 2465CHOL    R627868  15.519  24.834   4.595
 2465CHOL    C127869  15.720  24.973   4.856
 2465CHOL    C227870  15.889  24.982   5.256
 2466CHOL   ROH27871  13.948   7.471   7.307
 2466CHOL    R127872  13.733   7.557   6.942
 2466CHOL    R227873  13.991   7.329   6.991
 2466CHOL    R327874  13.673   7.402   6.548
 2466CHOL    R427875  13.908   7.185   6.729
 2466CHOL    R527876  13.777   7.224   7.074
 2466CHOL    R627877  13.658   7.138   6.630
 2466CHOL    C127878  13.796   7.109   6.301
 2466CHOL    C227879  13.715   7.208   5.881
 2467CHOL   ROH27880   6.796  18.887   6.860
 2467CHOL    R127881   7.040  18.892   6.504
 2467CHOL    R227882   6.695  18.856   6.528
 2467CHOL    R327883   7.007  18.925   6.079
 2467CHOL    R427884   6.671  18.935   6.229
 2467CHOL    R527885   6.750  19.102   6.550
 2467CHOL    R627886   6.811  19.121   6.087
 2467CHOL    C127887   6.733  18.947   5.784
 2467CHOL    C227888   6.831  18.856   5.366
 2468CHOL   ROH27889  27.271  11.955   3.461
 2468CHOL    R127890  27.441  11.864   3.847
 2468CHOL    R227891  27.181  12.083   3.773
 2468CHOL    R327892  27.362  11.915   4.264
 2468CHOL    R427893  27.093  12.074   4.070
 2468CHOL    R527894  27.087  11.849   3.776
 2468CHOL    R627895  27.091  11.863   4.243
 2468CHOL    C127896  27.104  12.090   4.519
 2468CHOL    C227897  27.033  12.001   4.927
 2469CHOL   ROH27898  15.671  21.998   4.232
 2469CHOL    R127899  15.404  22.075   4.562
 2469CHOL    R227900  15.584  21.785   4.494
 2469CHOL    R327901  15.290  21.913   4.941
 2469CHOL    R427902  15.545  21.696   4.788
 2469CHOL    R527903  15.740  21.950   4.603
 2469CHOL    R627904  15.548  21.847   5.016
 2469CHOL    C127905  15.353  21.597   5.182
 2469CHOL    C227906  15.137  21.617   5.541
 2470CHOL   ROH27907  28.331   7.557   6.765
 2470CHOL    R127908  28.219   7.703   6.375
 2470CHOL    R227909  28.348   7.391   6.459
 2470CHOL    R327910  28.146   7.564   5.977
 2470CHOL    R427911  28.244   7.280   6.189
 2470CHOL    R527912  28.101   7.391   6.512
 2470CHOL    R627913  28.012   7.336   6.057
 2470CHOL    C127914  28.163   7.231   5.750
 2470CHOL    C227915  28.297   7.266   5.344
 2471CHOL   ROH27916  13.095  18.190   6.954
 2471CHOL    R127917  13.214  17.905   6.652
 2471CHOL    R227918  13.126  18.239   6.610
 2471CHOL    R327919  13.336  17.887   6.243
 2471CHOL    R427920  13.266  18.237   6.334
 2471CHOL    R527921  13.365  18.231   6.690
 2471CHOL    R627922  13.497  18.112   6.257
 2471CHOL    C127923  13.387  18.119   5.917
 2471CHOL    C227924  13.561  18.099   5.554
 2472CHOL   ROH27925  19.468  11.350   5.751
 2472CHOL    R127926  19.148  11.639   5.748
 2472CHOL    R227927  19.242  11.419   5.496
 2472CHOL    R327928  18.800  11.747   5.524
 2472CHOL    R427929  18.964  11.458   5.364
 2472CHOL    R527930  19.103  11.291   5.664
 2472CHOL    R627931  18.719  11.485   5.482
 2472CHOL    C127932  18.597  11.651   5.189
 2472CHOL    C227933  18.237  11.881   5.077
 2473CHOL   ROH27934   8.305  14.144   4.000
 2473CHOL    R127935   8.336  14.292   4.404
 2473CHOL    R227936   8.076  14.108   4.262
 2473CHOL    R327937   8.153  14.248   4.789
 2473CHOL    R427938   7.978  14.033   4.546
 2473CHOL    R527939   8.261  13.948   4.323
 2473CHOL    R627940   8.124  13.973   4.769
 2473CHOL    C127941   7.845  14.065   4.974
 2473CHOL    C227942   7.765  14.128   5.385
 2474CHOL   ROH27943  17.309   9.532   7.250
 2474CHOL    R127944  17.461   9.307   6.915
 2474CHOL    R227945  17.145   9.446   6.955
 2474CHOL    R327946  17.367   9.211   6.509
 2474CHOL    R427947  17.102   9.425   6.649
 2474CHOL    R527948  17.303   9.629   6.883
 2474CHOL    R627949  17.280   9.466   6.445
 2474CHOL    C127950  17.080   9.262   6.230
 2474CHOL    C227951  17.161   9.203   5.791
 2475CHOL   ROH27952  27.892  16.653   6.977
 2475CHOL    R127953  27.997  16.743   6.569
 2475CHOL    R227954  27.789  16.491   6.687
 2475CHOL    R327955  27.880  16.651   6.168
 2475CHOL    R427956  27.667  16.465   6.403
 2475CHOL    R527957  27.657  16.706   6.684
 2475CHOL    R627958  27.608  16.659   6.221
 2475CHOL    C127959  27.626  16.418   5.958
 2475CHOL    C227960  27.678  16.370   5.538
 2476CHOL   ROH27961  32.508   5.487   6.910
 2476CHOL    R127962  32.683   5.756   6.622
 2476CHOL    R227963  32.588   5.425   6.576
 2476CHOL    R327964  32.753   5.793   6.202
 2476CHOL    R427965  32.587   5.472   6.269
 2476CHOL    R527966  32.381   5.568   6.561
 2476CHOL    R627967  32.507   5.691   6.128
 2476CHOL    C127968  32.715   5.590   5.855
 2476CHOL    C227969  32.666   5.823   5.461
 2477CHOL   ROH27970  14.895   0.030   6.956
 2477CHOL    R127971  14.997  -0.144   6.575
 2477CHOL    R227972  14.829   0.154   6.637
 2477CHOL    R327973  15.018  -0.045   6.160
 2477CHOL    R427974  14.894   0.246   6.348
 2477CHOL    R527975  15.076   0.196   6.667
 2477CHOL    R627976  15.122   0.208   6.202
 2477CHOL    C127977  14.934   0.252   5.901
 2477CHOL    C227978  14.826   0.051   5.510
 2478CHOL   ROH27979   2.085   0.784   4.912
 2478CHOL    R127980   2.317   1.054   5.157
 2478CHOL    R227981   2.116   0.789   5.260
 2478CHOL    R327982   2.461   1.098   5.557
 2478CHOL    R427983   2.263   0.789   5.533
 2478CHOL    R527984   2.337   0.694   5.183
 2478CHOL    R627985   2.527   0.831   5.587
 2478CHOL    C127986   2.442   0.927   5.921
 2478CHOL    C227987   2.441   1.137   6.319
 2479CHOL   ROH27988   2.862   3.212   6.797
 2479CHOL    R127989   2.912   3.457   6.446
 2479CHOL    R227990   2.884   3.111   6.464
 2479CHOL    R327991   2.886   3.436   6.019
 2479CHOL    R427992   2.812   3.105   6.162
 2479CHOL    R527993   2.652   3.208   6.480
 2479CHOL    R627994   2.659   3.278   6.018
 2479CHOL    C127995   2.824   3.174   5.719
 2479CHOL    C227996   2.986   3.392   5.387
 2480CHOL   ROH27997   1.279   2.885   6.935
 2480CHOL    R127998   1.362   2.733   6.540
 2480CHOL    R227999   1.162   3.003   6.628
 2480CHOL    R328000   1.323   2.841   6.128
 2480CHOL    R428001   1.181   3.108   6.337
 2480CHOL    R528002   1.402   3.080   6.633
 2480CHOL    R628003   1.394   3.105   6.166
 2480CHOL    C128004   1.169   3.127   5.888
 2480CHOL    C228005   1.047   3.121   5.480
 2481CHOL   ROH28006  29.055  21.515   6.675
 2481CHOL    R128007  29.323  21.492   6.338
 2481CHOL    R228008  28.984  21.415   6.348
 2481CHOL    R328009  29.319  21.448   5.912
 2481CHOL    R428010  28.974  21.437   6.039
 2481CHOL    R528011  29.006  21.665   6.329
 2481CHOL    R628012  29.101  21.613   5.874
 2481CHOL    C128013  29.069  21.382   5.603
 2481CHOL    C228014  29.223  21.338   5.224
 2482CHOL   ROH28015  35.602  31.420   5.412
 2482CHOL    R128016  35.737  31.391   5.820
 2482CHOL    R228017  35.529  31.632   5.679
 2482CHOL    R328018  35.658  31.552   6.208
 2482CHOL    R428019  35.433  31.709   5.963
 2482CHOL    R528020  35.390  31.427   5.727
 2482CHOL    R628021  35.382  31.549   6.178
 2482CHOL    C128022  35.432  31.829   6.396
 2482CHOL    C228023  35.497  31.885   6.816
 2483CHOL   ROH28024   9.826   8.285   5.610
 2483CHOL    R128025   9.558   8.436   5.912
 2483CHOL    R228026   9.547   8.490   5.569
 2483CHOL    R328027   9.177   8.627   5.953
 2483CHOL    R428028   9.251   8.578   5.596
 2483CHOL    R528029   9.446   8.264   5.615
 2483CHOL    R628030   9.055   8.476   5.756
 2483CHOL    C128031   8.878   8.786   5.735
 2483CHOL    C228032   8.742   9.172   5.875
 2484CHOL   ROH28033  11.604  11.083   3.876
 2484CHOL    R128034  11.546  10.700   4.064
 2484CHOL    R228035  11.637  11.001   4.213
 2484CHOL    R328036  11.501  10.523   4.451
 2484CHOL    R428037  11.550  10.886   4.488
 2484CHOL    R528038  11.387  11.003   4.177
 2484CHOL    R628039  11.339  10.725   4.549
 2484CHOL    C128040  11.510  10.615   4.844
 2484CHOL    C228041  11.509  10.326   5.177
 2485CHOL   ROH28042  26.596  20.603   5.288
 2485CHOL    R128043  26.462  20.455   4.906
 2485CHOL    R228044  26.407  20.768   5.046
 2485CHOL    R328045  26.293  20.591   4.537
 2485CHOL    R428046  26.337  20.877   4.764
 2485CHOL    R528047  26.639  20.767   4.948
 2485CHOL    R628048  26.450  20.819   4.523
 2485CHOL    C128049  26.151  20.923   4.358
 2485CHOL    C228050  25.881  20.901   3.994
 2486CHOL   ROH28051  14.204  20.127   4.004
 2486CHOL    R128052  14.349  20.254   4.390
 2486CHOL    R228053  14.024  20.271   4.267
 2486CHOL    R328054  14.207  20.373   4.776
 2486CHOL    R428055  13.920  20.302   4.557
 2486CHOL    R528056  14.066  20.035   4.346
 2486CHOL    R628057  14.007  20.182   4.786
 2486CHOL    C128058  13.867  20.449   4.978
 2486CHOL    C228059  13.889  20.807   5.227
 2487CHOL   ROH28060   3.818   3.667   6.811
 2487CHOL    R128061   3.767   3.658   6.383
 2487CHOL    R228062   3.950   3.440   6.582
 2487CHOL    R328063   3.830   3.402   6.046
 2487CHOL    R428064   3.947   3.232   6.352
 2487CHOL    R528065   3.707   3.373   6.596
 2487CHOL    R628066   3.746   3.172   6.176
 2487CHOL    C128067   3.988   3.045   5.945
 2487CHOL    C228068   3.993   2.953   5.517
 2488CHOL   ROH28069  32.173   4.040   3.697
 2488CHOL    R128070  32.470   4.019   4.009
 2488CHOL    R228071  32.125   4.053   4.042
 2488CHOL    R328072  32.504   3.964   4.432
 2488CHOL    R428073  32.148   3.959   4.336
 2488CHOL    R528074  32.176   3.809   3.999
 2488CHOL    R628075  32.309   3.768   4.445
 2488CHOL    C128076  32.280   3.925   4.765
 2488CHOL    C228077  32.471   3.812   5.140
 2489CHOL   ROH28078  29.441  21.179   3.687
 2489CHOL    R128079  29.256  20.946   4.000
 2489CHOL    R228080  29.374  21.273   4.016
 2489CHOL    R328081  29.084  20.990   4.388
 2489CHOL    R428082  29.202  21.318   4.270
 2489CHOL    R528083  29.147  21.277   3.906
 2489CHOL    R628084  28.952  21.226   4.328
 2489CHOL    C128085  29.020  21.264   4.677
 2489CHOL    C228086  28.706  21.230   4.950
 2490CHOL   ROH28087   3.339  10.509   7.386
 2490CHOL    R128088   3.209  10.813   7.108
 2490CHOL    R228089   3.381  10.519   7.040
 2490CHOL    R328090   3.158  10.879   6.689
 2490CHOL    R428091   3.295  10.542   6.743
 2490CHOL    R528092   3.137  10.461   7.068
 2490CHOL    R628093   3.058  10.626   6.638
 2490CHOL    C128094   3.223  10.706   6.331
 2490CHOL    C228095   3.157  10.701   5.877
 2491CHOL   ROH28096  12.112  29.109   3.829
 2491CHOL    R128097  11.789  29.151   4.112
 2491CHOL    R228098  12.129  29.208   4.163
 2491CHOL    R328099  11.704  29.317   4.497
 2491CHOL    R428100  12.058  29.376   4.414
 2491CHOL    R528101  12.032  29.410   4.047
 2491CHOL    R628102  11.850  29.548   4.455
 2491CHOL    C128103  11.882  29.502   4.808
 2491CHOL    C228104  11.774  29.431   5.252
 2492CHOL   ROH28105  22.683  16.540   7.252
 2492CHOL    R128106  22.456  16.627   6.895
 2492CHOL    R228107  22.801  16.648   6.942
 2492CHOL    R328108  22.510  16.697   6.477
 2492CHOL    R428109  22.838  16.644   6.634
 2492CHOL    R528110  22.742  16.406   6.901
 2492CHOL    R628111  22.703  16.501   6.445
 2492CHOL    C128112  22.797  16.741   6.197
 2492CHOL    C228113  22.684  16.920   5.811
 2493CHOL   ROH28114  10.559  28.930   6.488
 2493CHOL    R128115  10.607  28.948   6.060
 2493CHOL    R228116  10.714  29.178   6.298
 2493CHOL    R328117  10.824  29.162   5.759
 2493CHOL    R428118  10.911  29.296   6.091
 2493CHOL    R528119  10.880  28.988   6.294
 2493CHOL    R628120  11.061  29.168   5.902
 2493CHOL    C128121  11.079  29.470   5.712
 2493CHOL    C228122  11.291  29.519   5.337
 2494CHOL   ROH28123  20.789  30.426   4.606
 2494CHOL    R128124  20.651  30.018   4.620
 2494CHOL    R228125  20.785  30.208   4.878
 2494CHOL    R328126  20.551  29.711   4.900
 2494CHOL    R428127  20.663  30.010   5.083
 2494CHOL    R528128  20.543  30.273   4.852
 2494CHOL    R628129  20.422  29.881   5.076
 2494CHOL    C128130  20.552  29.630   5.295
 2494CHOL    C228131  20.584  29.232   5.448
 2495CHOL   ROH28132  23.488  25.346   6.797
 2495CHOL    R128133  23.661  25.354   6.402
 2495CHOL    R228134  23.329  25.400   6.492
 2495CHOL    R328135  23.568  25.469   6.001
 2495CHOL    R428136  23.277  25.534   6.217
 2495CHOL    R528137  23.451  25.617   6.533
 2495CHOL    R628138  23.438  25.702   6.074
 2495CHOL    C128139  23.265  25.609   5.775
 2495CHOL    C228140  23.317  25.852   5.399
 2496CHOL   ROH28141  26.485  25.057   6.706
 2496CHOL    R128142  26.608  24.917   6.317
 2496CHOL    R228143  26.328  24.822   6.501
 2496CHOL    R328144  26.460  24.697   5.982
 2496CHOL    R428145  26.200  24.711   6.242
 2496CHOL    R528146  26.276  25.042   6.389
 2496CHOL    R628147  26.208  24.811   5.988
 2496CHOL    C128148  26.139  24.485   5.858
 2496CHOL    C228149  26.058  24.270   5.492
 2497CHOL   ROH28150   5.433  15.645   7.289
 2497CHOL    R128151   5.083  15.702   7.043
 2497CHOL    R228152   5.413  15.785   6.970
 2497CHOL    R328153   4.972  15.797   6.641
 2497CHOL    R428154   5.339  15.800   6.670
 2497CHOL    R528155   5.384  15.538   6.928
 2497CHOL    R628156   5.170  15.642   6.525
 2497CHOL    C128157   5.131  15.905   6.286
 2497CHOL    C228158   5.008  15.837   5.893
 2498CHOL   ROH28159  32.433  33.093   6.859
 2498CHOL    R128160  32.713  33.248   6.570
 2498CHOL    R228161  32.469  33.005   6.524
 2498CHOL    R328162  32.787  33.252   6.149
 2498CHOL    R428163  32.487  33.051   6.218
 2498CHOL    R528164  32.357  33.231   6.514
 2498CHOL    R628165  32.521  33.283   6.079
 2498CHOL    C128166  32.651  33.098   5.802
 2498CHOL    C228167  32.873  33.048   5.444
 2499CHOL   ROH28168  24.517  27.509   7.019
 2499CHOL    R128169  24.306  27.729   6.714
 2499CHOL    R228170  24.592  27.533   6.679
 2499CHOL    R328171  24.282  27.765   6.288
 2499CHOL    R428172  24.539  27.517   6.374
 2499CHOL    R528173  24.392  27.379   6.685
 2499CHOL    R628174  24.302  27.494   6.241
 2499CHOL    C128175  24.455  27.633   5.949
 2499CHOL    C228176  24.211  27.797   5.640
 2500CHOL   ROH28177  25.755  28.240   3.339
 2500CHOL    R128178  25.895  28.218   3.747
 2500CHOL    R228179  25.625  28.398   3.622
 2500CHOL    R328180  25.774  28.315   4.145
 2500CHOL    R428181  25.511  28.419   3.909
 2500CHOL    R528182  25.552  28.158   3.650
 2500CHOL    R628183  25.511  28.234   4.109
 2500CHOL    C128184  25.478  28.496   4.350
 2500CHOL    C228185  25.426  28.483   4.791
 2501CHOL   ROH28186  26.660  26.840   6.810
 2501CHOL    R128187  26.427  27.090   6.546
 2501CHOL    R228188  26.624  26.814   6.464
 2501CHOL    R328189  26.277  27.100   6.146
 2501CHOL    R428190  26.472  26.792   6.195
 2501CHOL    R528191  26.403  26.729   6.553
 2501CHOL    R628192  26.208  26.831   6.141
 2501CHOL    C128193  26.288  26.896   5.798
 2501CHOL    C228194  26.158  26.871   5.388
 2502CHOL   ROH28195   8.089  20.610   3.100
 2502CHOL    R128196   8.184  20.738   3.500
 2502CHOL    R228197   7.871  20.663   3.367
 2502CHOL    R328198   8.010  20.768   3.890
 2502CHOL    R428199   7.761  20.632   3.655
 2502CHOL    R528200   7.985  20.446   3.427
 2502CHOL    R628201   7.880  20.524   3.875
 2502CHOL    C128202   7.662  20.713   4.086
 2502CHOL    C228203   7.835  20.695   4.504
 2503CHOL   ROH28204  32.558  27.729   7.015
 2503CHOL    R128205  32.655  27.622   6.609
 2503CHOL    R228206  32.426  27.859   6.720
 2503CHOL    R328207  32.599  27.759   6.207
 2503CHOL    R428208  32.431  27.990   6.439
 2503CHOL    R528209  32.657  27.961   6.731
 2503CHOL    R628210  32.641  28.026   6.269
 2503CHOL    C128211  32.413  28.046   5.994
 2503CHOL    C228212  32.431  28.199   5.563
 2504CHOL   ROH28213  21.573   5.703   3.456
 2504CHOL    R128214  21.385   6.036   3.655
 2504CHOL    R228215  21.522   5.750   3.798
 2504CHOL    R328216  21.336   6.205   4.045
 2504CHOL    R428217  21.536   5.897   4.070
 2504CHOL    R528218  21.711   5.909   3.744
 2504CHOL    R628219  21.598   6.157   4.123
 2504CHOL    C128220  21.420   6.135   4.433
 2504CHOL    C228221  21.425   6.295   4.835
 2505CHOL   ROH28222   7.296  24.662   6.867
 2505CHOL    R128223   6.993  24.678   6.561
 2505CHOL    R228224   7.258  24.897   6.612
 2505CHOL    R328225   6.904  24.874   6.191
 2505CHOL    R428226   7.225  25.000   6.322
 2505CHOL    R528227   7.347  24.694   6.492
 2505CHOL    R628228   7.163  24.860   6.095
 2505CHOL    C128229   7.043  25.161   5.944
 2505CHOL    C228230   6.944  25.057   5.538
 2506CHOL   ROH28231   6.978  20.802   6.657
 2506CHOL    R128232   6.848  20.800   6.245
 2506CHOL    R228233   7.131  20.950   6.380
 2506CHOL    R328234   6.989  20.890   5.852
 2506CHOL    R428235   7.254  20.963   6.096
 2506CHOL    R528236   7.180  20.704   6.350
 2506CHOL    R628237   7.241  20.782   5.893
 2506CHOL    C128238   7.308  21.043   5.657
 2506CHOL    C228239   7.405  21.028   5.239
 2507CHOL   ROH28240  24.502  31.605   6.785
 2507CHOL    R128241  24.205  31.744   6.505
 2507CHOL    R228242  24.507  31.587   6.436
 2507CHOL    R328243  24.097  31.713   6.092
 2507CHOL    R428244  24.403  31.518   6.153
 2507CHOL    R528245  24.340  31.410   6.501
 2507CHOL    R628246  24.153  31.442   6.074
 2507CHOL    C128247  24.223  31.556   5.743
 2507CHOL    C228248  24.152  31.643   5.354
 2508CHOL   ROH28249  31.965   0.587   6.863
 2508CHOL    R128250  32.155   0.427   6.511
 2508CHOL    R228251  31.853   0.597   6.534
 2508CHOL    R328252  32.131   0.444   6.084
 2508CHOL    R428253  31.866   0.655   6.229
 2508CHOL    R528254  32.038   0.768   6.537
 2508CHOL    R628255  32.083   0.716   6.075
 2508CHOL    C128256  31.908   0.598   5.786
 2508CHOL    C228257  32.207   0.689   5.489
 2509CHOL   ROH28258  12.873  20.366   3.705
 2509CHOL    R128259  12.661  20.174   4.028
 2509CHOL    R228260  12.872  20.450   4.043
 2509CHOL    R328261  12.552  20.236   4.437
 2509CHOL    R428262  12.750  20.523   4.319
 2509CHOL    R528263  12.647  20.529   3.963
 2509CHOL    R628264  12.491  20.504   4.403
 2509CHOL    C128265  12.604  20.494   4.742
 2509CHOL    C228266  12.480  20.422   5.169
 2510CHOL   ROH28267  29.518  29.816   3.582
 2510CHOL    R128268  29.319  30.147   3.774
 2510CHOL    R228269  29.375  29.828   3.900
 2510CHOL    R328270  29.178  30.272   4.158
 2510CHOL    R428271  29.326  29.936   4.186
 2510CHOL    R528272  29.588  29.961   3.926
 2510CHOL    R628273  29.398  30.176   4.296
 2510CHOL    C128274  29.137  30.143   4.538
 2510CHOL    C228275  29.195  30.430   4.859
 2511CHOL   ROH28276   7.390  25.356   4.580
 2511CHOL    R128277   7.232  25.719   4.751
 2511CHOL    R228278   7.437  25.482   4.902
 2511CHOL    R328279   7.280  25.975   5.089
 2511CHOL    R428280   7.513  25.691   5.118
 2511CHOL    R528281   7.582  25.631   4.759
 2511CHOL    R628282   7.557  25.959   5.090
 2511CHOL    C128283   7.482  26.006   5.437
 2511CHOL    C228284   7.290  26.218   5.777
 2512CHOL   ROH28285  18.346  20.314   7.783
 2512CHOL    R128286  18.196  20.473   7.411
 2512CHOL    R228287  18.514  20.348   7.479
 2512CHOL    R328288  18.296  20.495   6.995
 2512CHOL    R428289  18.562  20.315   7.175
 2512CHOL    R528290  18.360  20.152   7.439
 2512CHOL    R628291  18.388  20.235   6.980
 2512CHOL    C128292  18.588  20.400   6.734
 2512CHOL    C228293  18.535  20.611   6.369
 2513CHOL   ROH28294  23.241   7.035   3.805
 2513CHOL    R128295  23.162   6.728   4.096
 2513CHOL    R228296  23.378   6.999   4.123
 2513CHOL    R328297  23.226   6.638   4.510
 2513CHOL    R428298  23.378   6.964   4.431
 2513CHOL    R528299  23.144   7.081   4.169
 2513CHOL    R628300  23.173   6.895   4.597
 2513CHOL    C128301  23.409   6.780   4.840
 2513CHOL    C228302  23.279   6.532   5.156
 2514CHOL   ROH28303  10.983   7.032   6.949
 2514CHOL    R128304  10.903   6.737   6.645
 2514CHOL    R228305  11.123   7.007   6.631
 2514CHOL    R328306  11.060   6.592   6.274
 2514CHOL    R428307  11.269   6.871   6.394
 2514CHOL    R528308  11.235   6.821   6.759
 2514CHOL    R628309  11.324   6.606   6.354
 2514CHOL    C128310  11.348   6.666   6.002
 2514CHOL    C228311  11.376   6.501   5.602
 2515CHOL   ROH28312  11.746  27.774   7.060
 2515CHOL    R128313  11.507  27.654   6.722
 2515CHOL    R228314  11.804  27.834   6.722
 2515CHOL    R328315  11.527  27.625   6.295
 2515CHOL    R428316  11.843  27.764   6.423
 2515CHOL    R528317  11.862  27.590   6.749
 2515CHOL    R628318  11.788  27.532   6.291
 2515CHOL    C128319  11.766  27.712   5.983
 2515CHOL    C228320  11.724  27.574   5.563
 2516CHOL   ROH28321  34.973   1.767   3.519
 2516CHOL    R128322  35.094   2.028   3.840
 2516CHOL    R228323  34.938   1.718   3.862
 2516CHOL    R328324  35.150   2.029   4.264
 2516CHOL    R428325  35.029   1.698   4.158
 2516CHOL    R528326  35.184   1.679   3.822
 2516CHOL    R628327  35.264   1.777   4.272
 2516CHOL    C128328  35.101   1.797   4.590
 2516CHOL    C228329  34.970   1.971   4.947
 2517CHOL   ROH28330  33.466   1.427   5.993
 2517CHOL    R128331  33.701   1.786   5.945
 2517CHOL    R228332  33.389   1.714   5.810
 2517CHOL    R328333  33.667   2.189   5.805
 2517CHOL    R428334  33.345   2.017   5.759
 2517CHOL    R528335  33.355   1.787   6.049
 2517CHOL    R628336  33.416   2.230   5.914
 2517CHOL    C128337  33.409   2.441   5.625
 2517CHOL    C228338  33.531   2.826   5.496
 2518CHOL   ROH28339  21.811   3.346   7.152
 2518CHOL    R128340  22.109   3.374   6.841
 2518CHOL    R228341  21.799   3.215   6.829
 2518CHOL    R328342  22.158   3.307   6.421
 2518CHOL    R428343  21.814   3.219   6.519
 2518CHOL    R528344  21.762   3.462   6.793
 2518CHOL    R628345  21.911   3.412   6.353
 2518CHOL    C128346  21.962   3.166   6.098
 2518CHOL    C228347  22.121   3.088   5.705
 2519CHOL   ROH28348  17.582  29.884   6.826
 2519CHOL    R128349  17.372  29.759   6.470
 2519CHOL    R228350  17.650  29.967   6.494
 2519CHOL    R328351  17.414  29.754   6.045
 2519CHOL    R428352  17.709  29.916   6.194
 2519CHOL    R528353  17.730  29.728   6.513
 2519CHOL    R628354  17.683  29.686   6.049
 2519CHOL    C128355  17.658  29.879   5.749
 2519CHOL    C228356  17.435  29.704   5.429
 2520CHOL   ROH28357  24.402  14.712   4.175
 2520CHOL    R128358  24.163  14.894   4.484
 2520CHOL    R228359  24.396  14.638   4.515
 2520CHOL    R328360  24.132  14.916   4.910
 2520CHOL    R428361  24.411  14.694   4.820
 2520CHOL    R528362  24.521  14.856   4.505
 2520CHOL    R628363  24.405  14.933   4.952
 2520CHOL    C128364  24.294  14.765   5.247
 2520CHOL    C228365  24.194  14.772   5.669
 2521CHOL   ROH28366  27.804   8.436   3.981
 2521CHOL    R128367  27.638   8.413   4.379
 2521CHOL    R228368  27.968   8.359   4.279
 2521CHOL    R328369  27.760   8.391   4.788
 2521CHOL    R428370  28.058   8.398   4.573
 2521CHOL    R528371  27.931   8.608   4.296
 2521CHOL    R628372  27.966   8.573   4.761
 2521CHOL    C128373  28.089   8.360   5.020
 2521CHOL    C228374  28.108   8.119   5.403
 2522CHOL   ROH28375   4.228  26.227   5.251
 2522CHOL    R128376   4.221  25.798   5.297
 2522CHOL    R228377   4.433  25.989   5.098
 2522CHOL    R328378   4.456  25.451   5.210
 2522CHOL    R428379   4.629  25.750   5.082
 2522CHOL    R528380   4.520  25.998   5.335
 2522CHOL    R628381   4.697  25.569   5.276
 2522CHOL    C128382   4.794  25.336   5.022
 2522CHOL    C228383   4.779  24.928   4.908
 2523CHOL   ROH28384  31.275   3.644   3.767
 2523CHOL    R128385  31.047   3.799   4.099
 2523CHOL    R228386  31.188   3.483   4.064
 2523CHOL    R328387  30.950   3.709   4.506
 2523CHOL    R428388  31.166   3.443   4.371
 2523CHOL    R528389  31.370   3.642   4.135
 2523CHOL    R628390  31.205   3.623   4.572
 2523CHOL    C128391  31.000   3.425   4.788
 2523CHOL    C228392  31.034   3.559   5.227
 2524CHOL   ROH28393  35.008  14.656   7.412
 2524CHOL    R128394  34.863  14.623   7.007
 2524CHOL    R228395  35.108  14.837   7.132
 2524CHOL    R328396  34.961  14.746   6.609
 2524CHOL    R428397  35.211  14.881   6.843
 2524CHOL    R528398  35.213  14.610   7.096
 2524CHOL    R628399  35.232  14.702   6.638
 2524CHOL    C128400  35.224  14.971   6.403
 2524CHOL    C228401  35.316  14.850   5.987
 2525CHOL   ROH28402  35.998   8.956   5.016
 2525CHOL    R128403  35.602   9.120   5.065
 2525CHOL    R228404  35.784   8.925   5.290
 2525CHOL    R328405  35.306   9.189   5.366
 2525CHOL    R428406  35.597   9.021   5.518
 2525CHOL    R528407  35.867   9.162   5.307
 2525CHOL    R628408  35.488   9.268   5.559
 2525CHOL    C128409  35.229   9.119   5.756
 2525CHOL    C228410  34.817   8.972   5.909
 2526CHOL   ROH28411  22.100   1.007   6.856
 2526CHOL    R128412  21.912   1.217   6.529
 2526CHOL    R228413  22.141   0.955   6.513
 2526CHOL    R328414  21.851   1.187   6.106
 2526CHOL    R428415  22.054   0.902   6.221
 2526CHOL    R528416  21.914   0.857   6.560
 2526CHOL    R628417  21.805   0.914   6.109
 2526CHOL    C128418  21.953   0.962   5.787
 2526CHOL    C228419  21.778   1.078   5.403
 2527CHOL   ROH28420  18.735  16.628   6.800
 2527CHOL    R128421  18.346  16.705   6.632
 2527CHOL    R228422  18.651  16.683   6.467
 2527CHOL    R328423  18.144  16.721   6.255
 2527CHOL    R428424  18.499  16.640   6.200
 2527CHOL    R528425  18.569  16.449   6.510
 2527CHOL    R628426  18.271  16.497   6.152
 2527CHOL    C128427  18.212  16.693   5.859
 2527CHOL    C228428  17.845  16.741   5.628
 2528CHOL   ROH28429   3.487   4.901   7.065
 2528CHOL    R128430   3.410   5.131   6.708
 2528CHOL    R228431   3.459   4.788   6.736
 2528CHOL    R328432   3.302   5.081   6.297
 2528CHOL    R428433   3.328   4.750   6.458
 2528CHOL    R528434   3.221   4.838   6.801
 2528CHOL    R628435   3.116   4.882   6.347
 2528CHOL    C128436   3.233   4.796   6.021
 2528CHOL    C228437   3.298   4.880   5.590
 2529CHOL   ROH28438  24.062  21.963   7.198
 2529CHOL    R128439  24.320  21.877   6.862
 2529CHOL    R228440  23.978  21.816   6.893
 2529CHOL    R328441  24.301  21.766   6.450
 2529CHOL    R428442  23.960  21.790   6.584
 2529CHOL    R528443  24.009  22.059   6.834
 2529CHOL    R628444  24.088  21.933   6.391
 2529CHOL    C128445  24.039  21.663   6.161
 2529CHOL    C228446  24.162  21.600   5.731
 2530CHOL   ROH28447  21.286  27.928   3.769
 2530CHOL    R128448  21.333  27.690   4.125
 2530CHOL    R228449  21.511  27.973   4.031
 2530CHOL    R328450  21.522  27.700   4.509
 2530CHOL    R428451  21.602  28.009   4.325
 2530CHOL    R528452  21.291  28.048   4.129
 2530CHOL    R628453  21.463  27.967   4.556
 2530CHOL    C128454  21.771  27.925   4.733
 2530CHOL    C228455  22.048  27.879   5.060
 2531CHOL   ROH28456  11.568   2.709   3.506
 2531CHOL    R128457  11.677   2.493   3.862
 2531CHOL    R228458  11.672   2.837   3.813
 2531CHOL    R328459  11.751   2.555   4.279
 2531CHOL    R428460  11.671   2.877   4.120
 2531CHOL    R528461  11.436   2.761   3.858
 2531CHOL    R628462  11.542   2.733   4.313
 2531CHOL    C128463  11.778   2.847   4.555
 2531CHOL    C228464  11.892   2.925   4.960
 2532CHOL   ROH28465  30.388  34.360   3.720
 2532CHOL    R128466  30.248  34.572   4.069
 2532CHOL    R228467  30.509  34.342   4.047
 2532CHOL    R328468  30.364  34.661   4.471
 2532CHOL    R428469  30.621  34.449   4.315
 2532CHOL    R528470  30.594  34.565   3.965
 2532CHOL    R628471  30.630  34.705   4.410
 2532CHOL    C128472  30.650  34.581   4.744
 2532CHOL    C228473  30.724  34.725   5.134
 2533CHOL   ROH28474  16.698   8.098   7.026
 2533CHOL    R128475  16.490   8.250   6.680
 2533CHOL    R228476  16.766   8.038   6.690
 2533CHOL    R328477  16.458   8.187   6.258
 2533CHOL    R428478  16.706   7.953   6.398
 2533CHOL    R528479  16.559   7.899   6.734
 2533CHOL    R628480  16.465   7.911   6.276
 2533CHOL    C128481  16.616   7.971   5.958
 2533CHOL    C228482  16.653   8.127   5.544
 2534CHOL   ROH28483  31.491   4.683   3.674
 2534CHOL    R128484  31.314   4.864   4.024
 2534CHOL    R228485  31.439   4.541   3.989
 2534CHOL    R328486  31.269   4.799   4.444
 2534CHOL    R428487  31.456   4.518   4.297
 2534CHOL    R528488  31.634   4.697   4.026
 2534CHOL    R628489  31.527   4.707   4.481
 2534CHOL    C128490  31.347   4.529   4.733
 2534CHOL    C228491  31.271   4.614   5.165
 2535CHOL   ROH28492   7.203  11.644   3.621
 2535CHOL    R128493   7.550  11.794   3.829
 2535CHOL    R228494   7.232  11.732   3.957
 2535CHOL    R328495   7.694  11.863   4.226
 2535CHOL    R428496   7.352  11.729   4.243
 2535CHOL    R528497   7.354  11.512   3.943
 2535CHOL    R628498   7.590  11.629   4.330
 2535CHOL    C128499   7.579  11.848   4.612
 2535CHOL    C228500   7.709  11.835   5.038
 2536CHOL   ROH28501   6.861  17.793   3.958
 2536CHOL    R128502   7.175  17.800   4.254
 2536CHOL    R228503   6.867  17.963   4.262
 2536CHOL    R328504   7.246  17.917   4.659
 2536CHOL    R428505   6.898  17.997   4.569
 2536CHOL    R528506   6.830  17.722   4.330
 2536CHOL    R628507   7.002  17.824   4.752
 2536CHOL    C128508   7.068  18.098   4.972
 2536CHOL    C228509   7.154  17.803   5.259
 2537CHOL   ROH28510  17.963  26.226   4.259
 2537CHOL    R128511  17.769  26.309   4.635
 2537CHOL    R228512  17.835  25.999   4.491
 2537CHOL    R328513  17.645  26.115   4.995
 2537CHOL    R428514  17.797  25.867   4.769
 2537CHOL    R528515  18.047  26.081   4.600
 2537CHOL    R628516  17.872  25.958   5.016
 2537CHOL    C128517  17.622  25.750   5.166
 2537CHOL    C228518  17.257  25.569   5.315
 2538CHOL   ROH28519   9.025   5.562   7.033
 2538CHOL    R128520   8.815   5.616   6.660
 2538CHOL    R228521   9.137   5.495   6.709
 2538CHOL    R328522   8.841   5.511   6.246
 2538CHOL    R428523   9.131   5.372   6.425
 2538CHOL    R528524   8.976   5.307   6.755
 2538CHOL    R628525   8.924   5.252   6.294
 2538CHOL    C128526   9.082   5.325   5.981
 2538CHOL    C228527   9.095   5.327   5.524
 2539CHOL   ROH28528  29.311  13.084   6.962
 2539CHOL    R128529  29.355  13.356   6.630
 2539CHOL    R228530  29.503  13.044   6.674
 2539CHOL    R328531  29.505  13.369   6.230
 2539CHOL    R428532  29.561  13.033   6.370
 2539CHOL    R528533  29.266  13.008   6.593
 2539CHOL    R628534  29.407  13.120   6.161
 2539CHOL    C128535  29.700  13.145   5.957
 2539CHOL    C228536  30.007  13.224   5.648
 2540CHOL   ROH28537  17.302  29.218   4.331
 2540CHOL    R128538  17.536  29.073   4.663
 2540CHOL    R228539  17.202  29.169   4.661
 2540CHOL    R328540  17.491  28.927   5.062
 2540CHOL    R428541  17.160  29.014   4.926
 2540CHOL    R528542  17.216  28.935   4.569
 2540CHOL    R628543  17.267  28.775   5.005
 2540CHOL    C128544  17.213  28.866   5.347
 2540CHOL    C228545  17.302  28.656   5.731
 2541CHOL   ROH28546   1.508  25.699   4.372
 2541CHOL    R128547   1.467  25.913   4.744
 2541CHOL    R228548   1.669  25.638   4.675
 2541CHOL    R328549   1.655  25.954   5.126
 2541CHOL    R428550   1.838  25.705   4.926
 2541CHOL    R528551   1.785  25.844   4.587
 2541CHOL    R628552   1.913  25.948   5.025
 2541CHOL    C128553   1.955  25.802   5.349
 2541CHOL    C228554   2.174  25.931   5.703
 2542CHOL   ROH28555  33.140   4.767   4.037
 2542CHOL    R128556  33.078   4.903   4.442
 2542CHOL    R228557  33.270   4.635   4.332
 2542CHOL    R328558  33.233   4.851   4.837
 2542CHOL    R428559  33.420   4.636   4.603
 2542CHOL    R528560  33.404   4.846   4.299
 2542CHOL    R628561  33.498   4.848   4.756
 2542CHOL    C128562  33.504   4.637   5.045
 2542CHOL    C228563  33.429   4.573   5.489
 2543CHOL   ROH28564  35.862  21.809   7.331
 2543CHOL    R128565  36.108  21.681   7.000
 2543CHOL    R228566  35.774  21.780   6.995
 2543CHOL    R328567  36.112  21.673   6.573
 2543CHOL    R428568  35.797  21.826   6.689
 2543CHOL    R528569  35.917  21.987   7.000
 2543CHOL    R628570  36.006  21.927   6.545
 2543CHOL    C128571  35.883  21.761   6.253
 2543CHOL    C228572  36.128  21.708   5.918
 2544CHOL   ROH28573  35.197  28.127   4.175
 2544CHOL    R128574  35.064  27.850   4.478
 2544CHOL    R228575  35.097  28.195   4.502
 2544CHOL    R328576  34.872  27.842   4.860
 2544CHOL    R428577  34.911  28.191   4.750
 2544CHOL    R528578  34.880  28.146   4.384
 2544CHOL    R628579  34.688  28.040   4.797
 2544CHOL    C128580  34.732  28.086   5.149
 2544CHOL    C228581  34.750  28.071   5.585
 2545CHOL   ROH28582  11.034  16.829   3.551
 2545CHOL    R128583  10.915  16.742   3.956
 2545CHOL    R228584  11.141  16.982   3.845
 2545CHOL    R328585  10.939  16.904   4.351
 2545CHOL    R428586  11.113  17.128   4.117
 2545CHOL    R528587  10.908  17.073   3.813
 2545CHOL    R628588  10.891  17.165   4.271
 2545CHOL    C128589  11.100  17.210   4.558
 2545CHOL    C228590  11.107  17.344   4.972
 2546CHOL   ROH28591  18.712   5.909   4.008
 2546CHOL    R128592  18.887   5.644   4.300
 2546CHOL    R228593  18.666   5.907   4.354
 2546CHOL    R328594  18.846   5.527   4.709
 2546CHOL    R428595  18.597   5.787   4.631
 2546CHOL    R528596  18.533   5.708   4.275
 2546CHOL    R628597  18.569   5.525   4.704
 2546CHOL    C128598  18.639   5.614   5.044
 2546CHOL    C228599  18.560   5.360   5.401
 2547CHOL   ROH28600  11.531  27.364   3.320
 2547CHOL    R128601  11.618  27.366   3.742
 2547CHOL    R228602  11.310  27.328   3.587
 2547CHOL    R328603  11.439  27.271   4.119
 2547CHOL    R428604  11.197  27.207   3.849
 2547CHOL    R528605  11.429  27.105   3.579
 2547CHOL    R628606  11.317  27.040   4.028
 2547CHOL    C128607  11.090  27.150   4.282
 2547CHOL    C228608  10.978  27.212   4.691
 2548CHOL   ROH28609  32.907  26.205   7.325
 2548CHOL    R128610  32.641  26.327   7.008
 2548CHOL    R228611  32.952  26.173   6.980
 2548CHOL    R328612  32.580  26.277   6.588
 2548CHOL    R428613  32.881  26.091   6.690
 2548CHOL    R528614  32.782  25.995   7.034
 2548CHOL    R628615  32.642  26.007   6.588
 2548CHOL    C128616  32.747  26.109   6.261
 2548CHOL    C228617  32.546  26.195   5.887
 2549CHOL   ROH28618  17.888   1.641   6.885
 2549CHOL    R128619  18.187   1.739   6.589
 2549CHOL    R228620  17.860   1.631   6.538
 2549CHOL    R328621  18.226   1.816   6.170
 2549CHOL    R428622  17.874   1.739   6.248
 2549CHOL    R528623  17.853   1.878   6.590
 2549CHOL    R628624  17.994   1.966   6.153
 2549CHOL    C128625  18.014   1.819   5.828
 2549CHOL    C228626  18.166   1.788   5.398
 2550CHOL   ROH28627  33.226   1.467   3.996
 2550CHOL    R128628  33.043   1.182   4.263
 2550CHOL    R228629  33.342   1.354   4.305
 2550CHOL    R328630  33.072   1.037   4.665
 2550CHOL    R428631  33.331   1.293   4.608
 2550CHOL    R528632  33.154   1.510   4.367
 2550CHOL    R628633  33.116   1.287   4.776
 2550CHOL    C128634  33.296   1.073   4.998
 2550CHOL    C228635  33.136   0.963   5.362
 2551CHOL   ROH28636  15.065  10.852   4.038
 2551CHOL    R128637  15.359  11.020   4.304
 2551CHOL    R228638  15.013  11.013   4.342
 2551CHOL    R328639  15.398  11.171   4.703
 2551CHOL    R428640  15.049  11.069   4.645
 2551CHOL    R528641  15.104  10.788   4.410
 2551CHOL    R628642  15.239  10.975   4.817
 2551CHOL    C128643  15.182  11.254   5.033
 2551CHOL    C228644  15.217  11.535   5.343
 2552CHOL   ROH28645   5.044  29.610   7.191
 2552CHOL    R128646   5.184  29.856   6.865
 2552CHOL    R228647   4.942  29.605   6.858
 2552CHOL    R328648   5.083  29.963   6.464
 2552CHOL    R428649   4.836  29.721   6.590
 2552CHOL    R528650   4.835  29.814   6.949
 2552CHOL    R628651   4.811  29.981   6.512
 2552CHOL    C128652   4.820  29.879   6.170
 2552CHOL    C228653   4.832  29.980   5.734
 2553CHOL   ROH28654   0.492   5.509   6.699
 2553CHOL    R128655   0.675   5.588   6.316
 2553CHOL    R228656   0.339   5.532   6.387
 2553CHOL    R328657   0.572   5.693   5.915
 2553CHOL    R428658   0.264   5.661   6.115
 2553CHOL    R528659   0.392   5.772   6.444
 2553CHOL    R628660   0.376   5.875   5.988
 2553CHOL    C128661   0.253   5.754   5.675
 2553CHOL    C228662   0.319   5.988   5.340
 2554CHOL   ROH28663   3.814  13.079   4.711
 2554CHOL    R128664   3.961  13.086   5.117
 2554CHOL    R228665   3.729  13.298   4.968
 2554CHOL    R328666   3.875  13.261   5.497
 2554CHOL    R428667   3.632  13.383   5.250
 2554CHOL    R528668   3.610  13.085   5.031
 2554CHOL    R628669   3.601  13.231   5.475
 2554CHOL    C128670   3.629  13.526   5.676
 2554CHOL    C228671   3.674  13.670   6.089
 2555CHOL   ROH28672   1.722  33.100   4.638
 2555CHOL    R128673   1.559  32.983   5.020
 2555CHOL    R228674   1.395  33.136   4.754
 2555CHOL    R328675   1.184  32.930   5.219
 2555CHOL    R428676   1.124  33.047   4.875
 2555CHOL    R528677   1.413  32.890   4.704
 2555CHOL    R628678   1.060  32.813   5.001
 2555CHOL    C128679   0.788  32.978   5.165
 2555CHOL    C228680   0.492  32.909   5.469
 2556CHOL   ROH28681  11.463   3.183   4.776
 2556CHOL    R128682  11.208   3.309   5.100
 2556CHOL    R228683  11.464   3.074   5.108
 2556CHOL    R328684  11.175   3.284   5.526
 2556CHOL    R428685  11.474   3.100   5.416
 2556CHOL    R528686  11.568   3.303   5.121
 2556CHOL    R628687  11.445   3.322   5.572
 2556CHOL    C128688  11.350   3.116   5.848
 2556CHOL    C228689  11.232   2.928   6.245
 2557CHOL   ROH28690  28.319  24.876   6.595
 2557CHOL    R128691  28.497  24.756   6.221
 2557CHOL    R228692  28.233  24.976   6.272
 2557CHOL    R328693  28.506  24.863   5.807
 2557CHOL    R428694  28.279  25.090   5.987
 2557CHOL    R528695  28.448  25.100   6.316
 2557CHOL    R628696  28.513  25.136   5.855
 2557CHOL    C128697  28.339  25.118   5.543
 2557CHOL    C228698  28.236  25.020   5.108
 2558CHOL   ROH28699  27.062   3.819   7.335
 2558CHOL    R128700  27.227   4.126   7.082
 2558CHOL    R228701  27.217   3.783   7.025
 2558CHOL    R328702  27.370   4.187   6.683
 2558CHOL    R428703  27.267   3.836   6.724
 2558CHOL    R528704  26.991   3.879   6.966
 2558CHOL    R628705  27.171   4.035   6.564
 2558CHOL    C128706  27.446   3.988   6.341
 2558CHOL    C228707  27.789   4.059   6.084
 2559CHOL   ROH28708  17.417   1.683   3.767
 2559CHOL    R128709  17.380   1.661   4.196
 2559CHOL    R228710  17.150   1.786   3.967
 2559CHOL    R328711  17.088   1.698   4.507
 2559CHOL    R428712  16.928   1.760   4.181
 2559CHOL    R528713  17.130   1.535   3.968
 2559CHOL    R628714  16.890   1.564   4.367
 2559CHOL    C128715  16.701   1.793   4.567
 2559CHOL    C228716  16.499   1.898   4.943
 2560CHOL   ROH28717  14.338  23.234   6.918
 2560CHOL    R128718  14.236  22.933   6.627
 2560CHOL    R228719  14.418  23.225   6.579
 2560CHOL    R328720  14.335  22.808   6.230
 2560CHOL    R428721  14.531  23.107   6.315
 2560CHOL    R528722  14.572  23.053   6.679
 2560CHOL    R628723  14.606  22.851   6.259
 2560CHOL    C128724  14.557  22.914   5.911
 2560CHOL    C228725  14.577  22.795   5.461
 2561CHOL   ROH28726  15.878   6.167   4.026
 2561CHOL    R128727  15.840   6.098   4.450
 2561CHOL    R228728  15.792   6.395   4.276
 2561CHOL    R328729  15.687   6.282   4.804
 2561CHOL    R428730  15.633   6.507   4.517
 2561CHOL    R528731  15.584   6.255   4.250
 2561CHOL    R628732  15.458   6.379   4.682
 2561CHOL    C128733  15.518   6.624   4.935
 2561CHOL    C228734  15.270   6.758   5.283
 2562CHOL   ROH28735   7.073  17.951   7.089
 2562CHOL    R128736   7.190  17.787   6.708
 2562CHOL    R228737   7.030  18.089   6.772
 2562CHOL    R328738   7.238  17.901   6.298
 2562CHOL    R428739   7.115  18.189   6.491
 2562CHOL    R528740   7.277  18.120   6.817
 2562CHOL    R628741   7.349  18.148   6.356
 2562CHOL    C128742   7.180  18.211   6.047
 2562CHOL    C228743   7.366  18.132   5.648
 2563CHOL   ROH28744   8.484   8.445   6.896
 2563CHOL    R128745   8.791   8.479   6.594
 2563CHOL    R228746   8.471   8.344   6.563
 2563CHOL    R328747   8.844   8.447   6.171
 2563CHOL    R428748   8.493   8.374   6.255
 2563CHOL    R528749   8.452   8.596   6.549
 2563CHOL    R628750   8.607   8.574   6.108
 2563CHOL    C128751   8.647   8.349   5.833
 2563CHOL    C228752   8.820   8.383   5.410
 2564CHOL   ROH28753   6.060   9.806   6.947
 2564CHOL    R128754   6.193   9.993   6.582
 2564CHOL    R228755   5.899   9.817   6.639
 2564CHOL    R328756   6.048  10.109   6.197
 2564CHOL    R428757   5.777   9.947   6.385
 2564CHOL    R528758   5.868  10.050   6.729
 2564CHOL    R628759   5.805  10.202   6.291
 2564CHOL    C128760   5.720  10.088   5.963
 2564CHOL    C228761   5.842  10.063   5.566
 2565CHOL   ROH28762  33.914   2.418   4.000
 2565CHOL    R128763  33.544   2.491   4.210
 2565CHOL    R228764  33.840   2.357   4.335
 2565CHOL    R328765  33.386   2.509   4.608
 2565CHOL    R428766  33.744   2.423   4.623
 2565CHOL    R528767  33.866   2.608   4.326
 2565CHOL    R628768  33.606   2.640   4.713
 2565CHOL    C128769  33.490   2.449   4.993
 2565CHOL    C228770  33.157   2.600   5.261
 2566CHOL   ROH28771   8.875  35.393   6.193
 2566CHOL    R128772   8.634  35.493   5.849
 2566CHOL    R228773   8.793  35.192   5.920
 2566CHOL    R328774   8.436  35.309   5.517
 2566CHOL    R428775   8.608  35.050   5.715
 2566CHOL    R528776   8.579  35.200   6.053
 2566CHOL    R628777   8.343  35.093   5.663
 2566CHOL    C128778   8.386  34.951   5.338
 2566CHOL    C228779   7.995  34.854   5.111
 2567CHOL   ROH28780  15.710  29.100   4.022
 2567CHOL    R128781  15.548  28.974   4.401
 2567CHOL    R228782  15.794  29.213   4.341
 2567CHOL    R328783  15.538  29.089   4.813
 2567CHOL    R428784  15.745  29.328   4.624
 2567CHOL    R528785  15.569  29.319   4.298
 2567CHOL    R628786  15.510  29.359   4.761
 2567CHOL    C128787  15.691  29.360   5.069
 2567CHOL    C228788  15.607  29.434   5.488
 2568CHOL   ROH28789  20.628  12.284   7.423
 2568CHOL    R128790  20.712  12.567   7.109
 2568CHOL    R228791  20.684  12.221   7.085
 2568CHOL    R328792  20.730  12.594   6.682
 2568CHOL    R428793  20.642  12.249   6.779
 2568CHOL    R528794  20.451  12.318   7.089
 2568CHOL    R628795  20.504  12.440   6.640
 2568CHOL    C128796  20.699  12.368   6.350
 2568CHOL    C228797  20.775  12.527   5.932
 2569CHOL   ROH28798  23.594   8.842   6.935
 2569CHOL    R128799  23.949   8.804   6.694
 2569CHOL    R228800  23.617   8.788   6.591
 2569CHOL    R328801  24.074   8.802   6.285
 2569CHOL    R428802  23.709   8.842   6.300
 2569CHOL    R528803  23.679   9.032   6.617
 2569CHOL    R628804  23.905   9.008   6.208
 2569CHOL    C128805  23.928   8.813   5.909
 2569CHOL    C228806  24.141   8.642   5.569
 2570CHOL   ROH28807  26.142  33.869   6.940
 2570CHOL    R128808  26.053  34.140   6.617
 2570CHOL    R228809  26.118  33.799   6.600
 2570CHOL    R328810  25.943  34.139   6.203
 2570CHOL    R428811  25.987  33.792   6.319
 2570CHOL    R528812  25.877  33.829   6.671
 2570CHOL    R628813  25.767  33.926   6.227
 2570CHOL    C128814  25.886  33.889   5.892
 2570CHOL    C228815  25.634  34.049   5.568
 2571CHOL   ROH28816  21.578  26.232   4.385
 2571CHOL    R128817  21.377  26.477   4.678
 2571CHOL    R228818  21.404  26.130   4.669
 2571CHOL    R328819  21.204  26.453   5.068
 2571CHOL    R428820  21.330  26.121   4.970
 2571CHOL    R528821  21.620  26.223   4.763
 2571CHOL    R628822  21.403  26.291   5.171
 2571CHOL    C128823  21.117  26.189   5.360
 2571CHOL    C228824  20.726  26.309   5.512
 2572CHOL   ROH28825   6.742  16.569   6.955
 2572CHOL    R128826   6.964  16.400   6.625
 2572CHOL    R228827   6.650  16.550   6.619
 2572CHOL    R328828   6.964  16.389   6.198
 2572CHOL    R428829   6.678  16.589   6.313
 2572CHOL    R528830   6.823  16.733   6.622
 2572CHOL    R628831   6.899  16.656   6.167
 2572CHOL    C128832   6.750  16.508   5.877
 2572CHOL    C228833   6.795  16.382   5.464
 2573CHOL   ROH28834  15.781  17.517   7.466
 2573CHOL    R128835  15.632  17.829   7.207
 2573CHOL    R228836  15.863  17.579   7.132
 2573CHOL    R328837  15.623  17.941   6.794
 2573CHOL    R428838  15.812  17.627   6.831
 2573CHOL    R528839  15.632  17.479   7.118
 2573CHOL    R628840  15.578  17.684   6.702
 2573CHOL    C128841  15.763  17.830   6.433
 2573CHOL    C228842  15.574  17.845   6.024
 2574CHOL   ROH28843  10.750  25.692   6.457
 2574CHOL    R128844  10.750  25.919   6.090
 2574CHOL    R228845  10.689  25.579   6.132
 2574CHOL    R328846  10.632  25.887   5.680
 2574CHOL    R428847  10.553  25.572   5.854
 2574CHOL    R528848  10.478  25.704   6.192
 2574CHOL    R628849  10.393  25.759   5.735
 2574CHOL    C128850  10.478  25.626   5.414
 2574CHOL    C228851  10.501  25.815   5.005
 2575CHOL   ROH28852  10.825   9.369   4.523
 2575CHOL    R128853  10.598   9.692   4.348
 2575CHOL    R228854  10.724   9.668   4.672
 2575CHOL    R328855  10.488  10.098   4.422
 2575CHOL    R428856  10.693   9.975   4.702
 2575CHOL    R528857  10.912   9.738   4.520
 2575CHOL    R628858  10.737  10.172   4.519
 2575CHOL    C128859  10.518  10.389   4.700
 2575CHOL    C228860  10.299  10.771   4.724
 2576CHOL   ROH28861  16.807  17.966   7.367
 2576CHOL    R128862  16.661  18.010   6.963
 2576CHOL    R228863  16.984  18.062   7.082
 2576CHOL    R328864  16.802  18.056   6.562
 2576CHOL    R428865  17.090  18.040   6.791
 2576CHOL    R528866  16.951  17.813   7.050
 2576CHOL    R628867  17.009  17.874   6.590
 2576CHOL    C128868  17.141  18.103   6.349
 2576CHOL    C228869  17.206  18.350   6.014
 2577CHOL   ROH28870  25.198  33.090   6.971
 2577CHOL    R128871  25.182  32.922   6.574
 2577CHOL    R228872  25.070  33.234   6.680
 2577CHOL    R328873  25.110  33.035   6.168
 2577CHOL    R428874  25.071  33.330   6.385
 2577CHOL    R528875  25.320  33.248   6.647
 2577CHOL    R628876  25.249  33.274   6.186
 2577CHOL    C128877  24.999  33.350   5.942
 2577CHOL    C228878  24.736  33.273   5.609
 2578CHOL   ROH28879   2.508   2.406   7.053
 2578CHOL    R128880   2.270   2.622   6.765
 2578CHOL    R228881   2.506   2.372   6.706
 2578CHOL    R328882   2.155   2.609   6.353
 2578CHOL    R428883   2.382   2.328   6.425
 2578CHOL    R528884   2.290   2.261   6.778
 2578CHOL    R628885   2.121   2.334   6.348
 2578CHOL    C128886   2.222   2.404   6.012
 2578CHOL    C228887   2.180   2.387   5.558
 2579CHOL   ROH28888  26.160  28.462   6.853
 2579CHOL    R128889  26.108  28.690   6.490
 2579CHOL    R228890  26.244  28.372   6.526
 2579CHOL    R328891  26.117  28.645   6.065
 2579CHOL    R428892  26.199  28.322   6.224
 2579CHOL    R528893  25.993  28.350   6.530
 2579CHOL    R628894  25.990  28.399   6.065
 2579CHOL    C128895  26.200  28.375   5.777
 2579CHOL    C228896  26.419  28.501   5.414
 2580CHOL   ROH28897  14.667  16.881   4.433
 2580CHOL    R128898  14.578  17.026   4.830
 2580CHOL    R228899  14.752  16.739   4.740
 2580CHOL    R328900  14.687  16.962   5.239
 2580CHOL    R428901  14.873  16.727   5.025
 2580CHOL    R528902  14.910  16.935   4.720
 2580CHOL    R628903  14.957  16.931   5.186
 2580CHOL    C128904  14.912  16.723   5.473
 2580CHOL    C228905  14.834  16.786   5.874
 2581CHOL   ROH28906   1.014   9.799   7.485
 2581CHOL    R128907   0.762  10.057   7.247
 2581CHOL    R228908   1.073   9.923   7.165
 2581CHOL    R328909   0.719  10.201   6.847
 2581CHOL    R428910   1.013   9.981   6.866
 2581CHOL    R528911   0.898   9.745   7.127
 2581CHOL    R628912   0.778   9.958   6.729
 2581CHOL    C128913   0.898  10.191   6.486
 2581CHOL    C228914   0.691  10.393   6.183
 2582CHOL   ROH28915   3.810  17.284   6.835
 2582CHOL    R128916   3.945  17.332   6.428
 2582CHOL    R228917   3.768  17.066   6.566
 2582CHOL    R328918   3.891  17.164   6.039
 2582CHOL    R428919   3.685  16.979   6.281
 2582CHOL    R528920   3.604  17.252   6.517
 2582CHOL    R628921   3.618  17.132   6.065
 2582CHOL    C128922   3.705  16.863   5.847
 2582CHOL    C228923   3.844  16.746   5.442
 2583CHOL   ROH28924  16.859  13.623   6.578
 2583CHOL    R128925  16.859  13.845   6.208
 2583CHOL    R228926  17.032  13.552   6.283
 2583CHOL    R328927  16.977  13.807   5.798
 2583CHOL    R428928  17.068  13.500   5.980
 2583CHOL    R528929  16.794  13.490   6.228
 2583CHOL    R628930  16.894  13.545   5.774
 2583CHOL    C128931  17.168  13.558   5.545
 2583CHOL    C228932  17.362  13.715   5.213
 2584CHOL   ROH28933  33.244  27.330   7.004
 2584CHOL    R128934  33.242  27.732   6.848
 2584CHOL    R228935  33.209  27.433   6.673
 2584CHOL    R328936  33.146  27.949   6.492
 2584CHOL    R428937  33.087  27.590   6.435
 2584CHOL    R528938  32.985  27.489   6.776
 2584CHOL    R628939  32.917  27.804   6.437
 2584CHOL    C128940  33.028  27.895   6.110
 2584CHOL    C228941  32.930  28.155   5.775
 2585CHOL   ROH28942   0.432   8.326   4.558
 2585CHOL    R128943   0.590   8.643   4.805
 2585CHOL    R228944   0.445   8.343   4.906
 2585CHOL    R328945   0.702   8.724   5.209
 2585CHOL    R428946   0.576   8.380   5.185
 2585CHOL    R528947   0.684   8.297   4.841
 2585CHOL    R628948   0.822   8.478   5.249
 2585CHOL    C128949   0.703   8.558   5.577
 2585CHOL    C228950   0.735   8.781   5.960
 2586CHOL   ROH28951  17.680  13.534   6.587
 2586CHOL    R128952  17.780  13.136   6.454
 2586CHOL    R228953  17.766  13.429   6.266
 2586CHOL    R328954  17.950  12.931   6.120
 2586CHOL    R428955  17.938  13.292   6.048
 2586CHOL    R528956  17.986  13.426   6.390
 2586CHOL    R628957  18.148  13.120   6.076
 2586CHOL    C128958  18.089  12.994   5.747
 2586CHOL    C228959  18.384  12.728   5.602
 2587CHOL   ROH28960  13.048   2.249   3.729
 2587CHOL    R128961  13.070   1.939   4.028
 2587CHOL    R228962  13.134   2.279   4.066
 2587CHOL    R328963  13.100   1.887   4.452
 2587CHOL    R428964  13.101   2.247   4.372
 2587CHOL    R528965  12.884   2.245   4.072
 2587CHOL    R628966  12.925   2.093   4.512
 2587CHOL    C128967  13.146   2.097   4.794
 2587CHOL    C228968  13.348   2.030   5.185
 2588CHOL   ROH28969  10.599  29.270   4.796
 2588CHOL    R128970  10.539  29.289   5.222
 2588CHOL    R228971  10.744  29.489   5.025
 2588CHOL    R328972  10.614  29.544   5.558
 2588CHOL    R428973  10.751  29.699   5.253
 2588CHOL    R528974  10.507  29.575   5.004
 2588CHOL    R628975  10.552  29.777   5.423
 2588CHOL    C128976  10.797  29.889   5.658
 2588CHOL    C228977  10.916  30.173   5.991
 2589CHOL   ROH28978  33.005  13.534   7.117
 2589CHOL    R128979  33.231  13.861   6.949
 2589CHOL    R228980  33.153  13.555   6.802
 2589CHOL    R328981  33.387  13.999   6.575
 2589CHOL    R428982  33.215  13.677   6.524
 2589CHOL    R528983  32.951  13.705   6.782
 2589CHOL    R628984  33.162  13.928   6.429
 2589CHOL    C128985  33.424  13.891   6.188
 2589CHOL    C228986  33.606  14.049   5.824
 2590CHOL   ROH28987  31.515  25.206   4.404
 2590CHOL    R128988  31.360  24.805   4.360
 2590CHOL    R228989  31.360  25.006   4.644
 2590CHOL    R328990  31.112  24.522   4.562
 2590CHOL    R428991  31.138  24.827   4.765
 2590CHOL    R528992  31.169  25.080   4.497
 2590CHOL    R628993  30.925  24.709   4.643
 2590CHOL    C128994  30.909  24.467   4.906
 2590CHOL    C228995  30.676  24.128   5.009
 2591CHOL   ROH28996   9.021   3.376   6.332
 2591CHOL    R128997   9.178   3.329   5.933
 2591CHOL    R228998   8.847   3.369   6.030
 2591CHOL    R328999   9.062   3.369   5.523
 2591CHOL    R429000   8.776   3.452   5.740
 2591CHOL    R529001   8.956   3.596   6.029
 2591CHOL    R629002   8.919   3.603   5.563
 2591CHOL    C129003   8.743   3.451   5.292
 2591CHOL    C229004   8.715   3.375   4.847
 2592CHOL   ROH29005  23.420  11.004   4.413
 2592CHOL    R129006  23.736  11.295   4.459
 2592CHOL    R229007  23.480  11.218   4.682
 2592CHOL    R329008  23.919  11.541   4.757
 2592CHOL    R429009  23.643  11.352   4.909
 2592CHOL    R529010  23.659  11.042   4.706
 2592CHOL    R629011  23.912  11.347   4.954
 2592CHOL    C129012  23.884  11.650   5.144
 2592CHOL    C229013  24.021  11.959   5.431
 2593CHOL   ROH29014   1.413   9.243   3.882
 2593CHOL    R129015   1.547   9.429   4.247
 2593CHOL    R229016   1.277   9.214   4.201
 2593CHOL    R329017   1.491   9.406   4.671
 2593CHOL    R429018   1.274   9.158   4.506
 2593CHOL    R529019   1.486   9.074   4.214
 2593CHOL    R629020   1.484   9.130   4.678
 2593CHOL    C129021   1.271   9.218   4.951
 2593CHOL    C229022   1.361   9.290   5.351
 2594CHOL   ROH29023  13.196  15.294   6.704
 2594CHOL    R129024  13.359  15.453   6.337
 2594CHOL    R229025  13.221  15.138   6.393
 2594CHOL    R329026  13.374  15.371   5.918
 2594CHOL    R429027  13.183  15.105   6.087
 2594CHOL    R529028  13.031  15.302   6.361
 2594CHOL    R629029  13.109  15.291   5.901
 2594CHOL    C129030  13.265  15.094   5.645
 2594CHOL    C229031  13.210  15.196   5.234
 2595CHOL   ROH29032  18.072  24.877   4.543
 2595CHOL    R129033  18.340  24.934   4.875
 2595CHOL    R229034  18.124  25.166   4.732
 2595CHOL    R329035  18.424  25.210   5.191
 2595CHOL    R429036  18.145  25.338   4.988
 2595CHOL    R529037  17.989  25.018   4.886
 2595CHOL    R629038  18.158  25.259   5.249
 2595CHOL    C129039  18.313  25.570   5.335
 2595CHOL    C229040  18.361  25.748   5.723
 2596CHOL   ROH29041  16.719  28.538   6.963
 2596CHOL    R129042  16.729  28.397   6.556
 2596CHOL    R229043  16.507  28.622   6.700
 2596CHOL    R329044  16.564  28.483   6.171
 2596CHOL    R429045  16.429  28.721   6.417
 2596CHOL    R529046  16.719  28.746   6.646
 2596CHOL    R629047  16.587  28.758   6.197
 2596CHOL    C129048  16.300  28.726   5.987
 2596CHOL    C229049  16.088  28.682   5.588
 2597CHOL   ROH29050  33.354  14.667   7.567
 2597CHOL    R129051  33.609  14.750   7.229
 2597CHOL    R229052  33.261  14.731   7.237
 2597CHOL    R329053  33.591  14.895   6.827
 2597CHOL    R429054  33.251  14.887   6.969
 2597CHOL    R529055  33.329  14.958   7.324
 2597CHOL    R629056  33.407  15.094   6.883
 2597CHOL    C129057  33.328  15.012   6.544
 2597CHOL    C229058  33.361  14.815   6.135
 2598CHOL   ROH29059  13.811   2.896   6.978
 2598CHOL    R129060  13.543   3.116   6.721
 2598CHOL    R229061  13.882   3.055   6.675
 2598CHOL    R329062  13.520   3.280   6.327
 2598CHOL    R429063  13.849   3.123   6.375
 2598CHOL    R529064  13.756   2.849   6.605
 2598CHOL    R629065  13.644   3.065   6.205
 2598CHOL    C129066  13.741   3.337   5.995
 2598CHOL    C229067  13.651   3.574   5.646
 2599CHOL   ROH29068  11.231   1.217   6.339
 2599CHOL    R129069  11.083   1.107   5.948
 2599CHOL    R229070  11.294   1.371   6.032
 2599CHOL    R329071  11.150   1.187   5.534
 2599CHOL    R429072  11.382   1.389   5.735
 2599CHOL    R529073  11.432   1.160   6.022
 2599CHOL    R629074  11.426   1.189   5.555
 2599CHOL    C129075  11.369   1.419   5.287
 2599CHOL    C229076  11.389   1.587   4.868
 2600CHOL   ROH29077   1.500   8.557   7.014
 2600CHOL    R129078   1.625   8.349   6.657
 2600CHOL    R229079   1.356   8.567   6.696
 2600CHOL    R329080   1.559   8.346   6.235
 2600CHOL    R429081   1.347   8.604   6.389
 2600CHOL    R529082   1.565   8.705   6.670
 2600CHOL    R629083   1.553   8.622   6.210
 2600CHOL    C129084   1.333   8.517   5.948
 2600CHOL    C229085   1.208   8.445   5.523
 2601CHOL   ROH29086   1.355  20.092   4.479
 2601CHOL    R129087   1.261  19.977   4.884
 2601CHOL    R229088   1.398  20.276   4.772
 2601CHOL    R329089   1.219  20.144   5.275
 2601CHOL    R429090   1.316  20.409   5.040
 2601CHOL    R529091   1.149  20.285   4.733
 2601CHOL    R629092   1.090  20.373   5.189
 2601CHOL    C129093   1.264  20.489   5.479
 2601CHOL    C229094   1.358  20.530   5.904
 2602CHOL   ROH29095  13.567  30.525   3.862
 2602CHOL    R129096  13.491  30.501   4.286
 2602CHOL    R229097  13.714  30.312   4.096
 2602CHOL    R329098  13.654  30.332   4.643
 2602CHOL    R429099  13.863  30.235   4.357
 2602CHOL    R529100  13.822  30.535   4.144
 2602CHOL    R629101  13.917  30.387   4.577
 2602CHOL    C129102  13.949  30.090   4.773
 2602CHOL    C229103  13.983  30.102   5.230
 2603CHOL   ROH29104  28.994  27.526   3.828
 2603CHOL    R129105  29.014  27.350   4.221
 2603CHOL    R229106  29.092  27.676   4.127
 2603CHOL    R329107  29.057  27.460   4.632
 2603CHOL    R429108  29.068  27.763   4.424
 2603CHOL    R529109  28.842  27.659   4.149
 2603CHOL    R629110  28.890  27.680   4.614
 2603CHOL    C129111  29.120  27.779   4.869
 2603CHOL    C229112  29.112  27.737   5.315
 2604CHOL   ROH29113  11.804  10.301   3.828
 2604CHOL    R129114  11.666  10.121   4.195
 2604CHOL    R229115  11.975  10.266   4.130
 2604CHOL    R329116  11.769  10.091   4.609
 2604CHOL    R429117  12.023  10.293   4.435
 2604CHOL    R529118  11.810  10.452   4.176
 2604CHOL    R629119  11.845  10.356   4.633
 2604CHOL    C129120  12.056  10.194   4.872
 2604CHOL    C229121  12.030   9.985   5.255
 2605CHOL   ROH29122  30.458  18.725   3.708
 2605CHOL    R129123  30.415  18.663   4.132
 2605CHOL    R229124  30.650  18.523   3.918
 2605CHOL    R329125  30.625  18.498   4.467
 2605CHOL    R429126  30.827  18.454   4.163
 2605CHOL    R529127  30.726  18.757   3.975
 2605CHOL    R629128  30.871  18.598   4.390
 2605CHOL    C129129  30.961  18.297   4.562
 2605CHOL    C229130  30.970  18.075   4.958
 2606CHOL   ROH29131  19.516  14.814   7.057
 2606CHOL    R129132  19.263  14.874   6.713
 2606CHOL    R229133  19.570  14.709   6.729
 2606CHOL    R329134  19.213  14.738   6.310
 2606CHOL    R429135  19.504  14.570   6.460
 2606CHOL    R529136  19.392  14.551   6.812
 2606CHOL    R629137  19.265  14.473   6.369
 2606CHOL    C129138  19.383  14.501   6.033
 2606CHOL    C229139  19.323  14.577   5.592
 2607CHOL   ROH29140   9.448  14.984   5.446
 2607CHOL    R129141   9.077  14.849   5.621
 2607CHOL    R229142   9.124  15.094   5.378
 2607CHOL    R329143   8.654  14.873   5.562
 2607CHOL    R429144   8.825  15.069   5.301
 2607CHOL    R529145   9.134  14.869   5.265
 2607CHOL    R629146   8.668  14.846   5.287
 2607CHOL    C129147   8.377  15.049   5.329
 2607CHOL    C229148   8.119  15.222   5.602
 2608CHOL   ROH29149  35.774  13.616   4.088
 2608CHOL    R129150  35.856  13.847   4.443
 2608CHOL    R229151  35.574  13.657   4.370
 2608CHOL    R329152  35.713  13.904   4.842
 2608CHOL    R429153  35.502  13.655   4.672
 2608CHOL    R529154  35.755  13.501   4.449
 2608CHOL    R629155  35.667  13.635   4.888
 2608CHOL    C129156  35.417  13.790   5.092
 2608CHOL    C229157  35.277  14.118   5.325
 2609CHOL   ROH29158   8.730  35.884   3.542
 2609CHOL    R129159   8.960  35.918   3.906
 2609CHOL    R229160   8.614  35.921   3.869
 2609CHOL    R329161   8.913  35.901   4.331
 2609CHOL    R429162   8.585  35.854   4.171
 2609CHOL    R529163   8.692  35.681   3.861
 2609CHOL    R629164   8.737  35.688   4.326
 2609CHOL    C129165   8.631  35.867   4.617
 2609CHOL    C229166   8.637  36.021   5.017
 2610CHOL   ROH29167  11.255   1.843   6.198
 2610CHOL    R129168  11.100   1.687   5.827
 2610CHOL    R229169  11.253   1.994   5.884
 2610CHOL    R329170  11.109   1.763   5.406
 2610CHOL    R429171  11.307   2.020   5.580
 2610CHOL    R529172  11.434   1.819   5.864
 2610CHOL    R629173  11.378   1.828   5.400
 2610CHOL    C129174  11.246   2.029   5.135
 2610CHOL    C229175  11.156   2.075   4.710
 2611CHOL   ROH29176  24.026  22.045   3.775
 2611CHOL    R129177  24.213  21.841   4.106
 2611CHOL    R229178  23.958  22.077   4.116
 2611CHOL    R329179  24.161  21.768   4.524
 2611CHOL    R429180  23.887  21.982   4.403
 2611CHOL    R529181  23.856  21.854   4.057
 2611CHOL    R629182  23.887  21.730   4.506
 2611CHOL    C129183  23.923  21.866   4.835
 2611CHOL    C229184  24.119  21.861   5.231
 2612CHOL   ROH29185  33.307  27.308   4.088
 2612CHOL    R129186  33.253  27.616   4.385
 2612CHOL    R229187  33.184  27.277   4.413
 2612CHOL    R329188  33.175  27.665   4.803
 2612CHOL    R429189  33.182  27.306   4.721
 2612CHOL    R529190  33.431  27.309   4.447
 2612CHOL    R629191  33.343  27.459   4.881
 2612CHOL    C129192  33.092  27.454   5.136
 2612CHOL    C229193  33.015  27.590   5.550
 2613CHOL   ROH29194  13.683   5.923   5.616
 2613CHOL    R129195  13.699   5.852   5.190
 2613CHOL    R229196  13.523   5.674   5.432
 2613CHOL    R329197  13.502   5.629   4.884
 2613CHOL    R429198  13.345   5.554   5.208
 2613CHOL    R529199  13.391   5.881   5.377
 2613CHOL    R629200  13.247   5.674   4.983
 2613CHOL    C129201  13.213   5.353   4.829
 2613CHOL    C229202  13.020   5.322   4.418
 2614CHOL   ROH29203  18.330   7.298   7.088
 2614CHOL    R129204  18.192   7.274   6.680
 2614CHOL    R229205  18.509   7.359   6.794
 2614CHOL    R329206  18.340   7.265   6.279
 2614CHOL    R429207  18.623   7.298   6.513
 2614CHOL    R529208  18.489   7.107   6.800
 2614CHOL    R629209  18.555   7.100   6.337
 2614CHOL    C129210  18.682   7.297   6.067
 2614CHOL    C229211  18.644   7.343   5.642
 2615CHOL   ROH29212  18.993  24.049   7.286
 2615CHOL    R129213  19.045  24.075   6.858
 2615CHOL    R229214  19.192  23.850   7.080
 2615CHOL    R329215  19.204  23.852   6.530
 2615CHOL    R429216  19.257  23.664   6.841
 2615CHOL    R529217  18.958  23.770   7.031
 2615CHOL    R629218  19.109  23.608   6.619
 2615CHOL    C129219  19.406  23.514   6.444
 2615CHOL    C229220  19.590  23.395   6.084
 2616CHOL   ROH29221   7.299   9.765   4.581
 2616CHOL    R129222   7.612  10.058   4.627
 2616CHOL    R229223   7.633   9.713   4.665
 2616CHOL    R329224   8.037  10.087   4.662
 2616CHOL    R429225   7.941   9.733   4.635
 2616CHOL    R529226   7.642   9.765   4.419
 2616CHOL    R629227   8.089   9.893   4.471
 2616CHOL    C129228   8.368   9.859   4.691
 2616CHOL    C229229   8.759   9.989   4.833
 2617CHOL   ROH29230   7.620  21.756   6.554
 2617CHOL    R129231   7.796  21.992   6.239
 2617CHOL    R229232   7.801  21.646   6.277
 2617CHOL    R329233   7.969  21.950   5.850
 2617CHOL    R429234   7.873  21.618   5.977
 2617CHOL    R529235   7.577  21.711   6.179
 2617CHOL    R629236   7.785  21.763   5.763
 2617CHOL    C129237   8.078  21.671   5.580
 2617CHOL    C229238   8.220  21.740   5.173
 2618CHOL   ROH29239  25.021   3.806   7.139
 2618CHOL    R129240  25.072   4.077   6.807
 2618CHOL    R229241  25.238   3.777   6.868
 2618CHOL    R329242  25.252   4.097   6.420
 2618CHOL    R429243  25.322   3.768   6.570
 2618CHOL    R529244  25.013   3.723   6.769
 2618CHOL    R629245  25.180   3.839   6.348
 2618CHOL    C129246  25.486   3.885   6.169
 2618CHOL    C229247  25.541   4.039   5.752
 2619CHOL   ROH29248  16.010   4.458   5.887
 2619CHOL    R129249  15.740   4.194   6.096
 2619CHOL    R229250  16.039   4.114   5.936
 2619CHOL    R329251  15.720   3.798   6.255
 2619CHOL    R429252  16.048   3.848   6.096
 2619CHOL    R529253  16.095   4.210   6.162
 2619CHOL    R629254  15.978   3.800   6.356
 2619CHOL    C129255  15.930   3.455   6.278
 2619CHOL    C229256  15.651   3.132   6.288
 2620CHOL   ROH29257   7.987   9.780   6.228
 2620CHOL    R129258   8.262   9.767   5.895
 2620CHOL    R229259   7.925   9.680   5.899
 2620CHOL    R329260   8.266   9.725   5.469
 2620CHOL    R429261   7.919   9.705   5.590
 2620CHOL    R529262   7.941   9.932   5.882
 2620CHOL    R629263   8.045   9.886   5.429
 2620CHOL    C129264   8.022   9.656   5.156
 2620CHOL    C229265   8.234   9.462   4.813
 2621CHOL   ROH29266  10.848  26.926   6.925
 2621CHOL    R129267  10.832  26.622   6.619
 2621CHOL    R229268  10.788  26.965   6.583
 2621CHOL    R329269  10.829  26.579   6.193
 2621CHOL    R429270  10.841  26.937   6.280
 2621CHOL    R529271  11.036  26.919   6.594
 2621CHOL    R629272  11.019  26.776   6.149
 2621CHOL    C129273  10.820  26.796   5.853
 2621CHOL    C229274  10.702  26.634   5.468
 2622CHOL   ROH29275  11.116   6.468   3.699
 2622CHOL    R129276  11.178   6.555   4.117
 2622CHOL    R229277  10.918   6.376   3.971
 2622CHOL    R329278  11.038   6.440   4.505
 2622CHOL    R429279  10.854   6.251   4.248
 2622CHOL    R529280  11.118   6.223   3.990
 2622CHOL    R629281  11.025   6.170   4.445
 2622CHOL    C129282  10.763   6.207   4.686
 2622CHOL    C229283  10.586   6.404   5.059
 2623CHOL   ROH29284  13.403  13.988   6.855
 2623CHOL    R129285  13.223  13.614   6.736
 2623CHOL    R229286  13.375  13.853   6.534
 2623CHOL    R329287  13.198  13.349   6.401
 2623CHOL    R429288  13.405  13.640   6.311
 2623CHOL    R529289  13.557  13.713   6.641
 2623CHOL    R629290  13.465  13.374   6.333
 2623CHOL    C129291  13.310  13.315   6.016
 2623CHOL    C229292  13.299  13.051   5.649
 2624CHOL   ROH29293   5.511   2.169   6.991
 2624CHOL    R129294   5.799   2.203   6.672
 2624CHOL    R229295   5.472   2.087   6.655
 2624CHOL    R329296   5.825   2.191   6.246
 2624CHOL    R429297   5.477   2.132   6.348
 2624CHOL    R529298   5.465   2.339   6.655
 2624CHOL    R629299   5.592   2.334   6.205
 2624CHOL    C129300   5.603   2.122   5.917
 2624CHOL    C229301   5.609   2.234   5.477
 2625CHOL   ROH29302  29.393  14.812   7.139
 2625CHOL    R129303  29.452  15.026   6.769
 2625CHOL    R229304  29.535  14.696   6.843
 2625CHOL    R329305  29.550  14.957   6.358
 2625CHOL    R429306  29.552  14.636   6.539
 2625CHOL    R529307  29.288  14.704   6.790
 2625CHOL    R629308  29.395  14.729   6.336
 2625CHOL    C129309  29.659  14.664   6.104
 2625CHOL    C229310  29.876  14.668   5.736
 2626CHOL   ROH29311  31.903  32.535   7.065
 2626CHOL    R129312  32.120  32.692   6.727
 2626CHOL    R229313  31.895  32.427   6.733
 2626CHOL    R329314  32.130  32.673   6.300
 2626CHOL    R429315  31.863  32.452   6.426
 2626CHOL    R529316  31.763  32.642   6.728
 2626CHOL    R629317  31.855  32.677   6.271
 2626CHOL    C129318  31.958  32.484   5.988
 2626CHOL    C229319  32.003  32.569   5.547
 2627CHOL   ROH29320   1.604  28.074   6.810
 2627CHOL    R129321   1.574  28.040   6.381
 2627CHOL    R229322   1.365  27.902   6.624
 2627CHOL    R329323   1.301  27.915   6.077
 2627CHOL    R429324   1.147  27.863   6.407
 2627CHOL    R529325   1.301  28.144   6.593
 2627CHOL    R629326   1.079  28.026   6.199
 2627CHOL    C129327   0.938  27.745   6.027
 2627CHOL    C229328   0.773  27.593   5.649
 2628CHOL   ROH29329  33.607  21.081   7.407
 2628CHOL    R129330  33.320  21.014   7.092
 2628CHOL    R229331  33.557  21.268   7.117
 2628CHOL    R329332  33.229  21.139   6.693
 2628CHOL    R429333  33.527  21.319   6.812
 2628CHOL    R529334  33.673  21.060   7.033
 2628CHOL    R629335  33.493  21.140   6.609
 2628CHOL    C129336  33.349  21.398   6.408
 2628CHOL    C229337  33.164  21.357   6.012
 2629CHOL   ROH29338  22.977  13.600   6.978
 2629CHOL    R129339  23.133  13.404   6.627
 2629CHOL    R229340  23.097  13.745   6.684
 2629CHOL    R329341  23.350  13.489   6.268
 2629CHOL    R429342  23.299  13.801   6.455
 2629CHOL    R529343  23.307  13.669   6.801
 2629CHOL    R629344  23.526  13.665   6.388
 2629CHOL    C129345  23.504  13.795   6.056
 2629CHOL    C229346  23.649  13.780   5.623
 2630CHOL   ROH29347  25.432  26.362   3.926
 2630CHOL    R129348  25.633  26.213   4.277
 2630CHOL    R229349  25.308  26.334   4.250
 2630CHOL    R329350  25.552  26.087   4.678
 2630CHOL    R429351  25.238  26.194   4.518
 2630CHOL    R529352  25.309  26.096   4.168
 2630CHOL    R629353  25.319  25.951   4.612
 2630CHOL    C129354  25.252  26.060   4.946
 2630CHOL    C229355  25.426  25.834   5.267
 2631CHOL   ROH29356  35.815   1.528   6.945
 2631CHOL    R129357  36.028   1.729   6.628
 2631CHOL    R229358  35.690   1.650   6.643
 2631CHOL    R329359  35.958   1.958   6.274
 2631CHOL    R429360  35.635   1.859   6.421
 2631CHOL    R529361  35.727   1.859   6.780
 2631CHOL    R629362  35.750   2.104   6.382
 2631CHOL    C129363  35.661   2.090   6.036
 2631CHOL    C229364  35.758   2.059   5.610
 2632CHOL   ROH29365  19.728   0.789   7.115
 2632CHOL    R129366  19.428   0.807   6.806
 2632CHOL    R229367  19.768   0.744   6.772
 2632CHOL    R329368  19.370   0.708   6.394
 2632CHOL    R429369  19.714   0.621   6.493
 2632CHOL    R529370  19.657   0.530   6.847
 2632CHOL    R629371  19.505   0.467   6.409
 2632CHOL    C129372  19.567   0.567   6.071
 2632CHOL    C229373  19.449   0.566   5.659
 2633CHOL   ROH29374  28.283  29.165   3.296
 2633CHOL    R129375  28.236  28.784   3.493
 2633CHOL    R229376  28.214  29.102   3.632
 2633CHOL    R329377  28.095  28.615   3.860
 2633CHOL    R429378  28.062  28.981   3.874
 2633CHOL    R529379  27.995  29.052   3.517
 2633CHOL    R629380  27.875  28.782   3.879
 2633CHOL    C129381  27.953  28.719   4.222
 2633CHOL    C229382  27.934  28.363   4.457
 2634CHOL   ROH29383  29.689   3.674   3.874
 2634CHOL    R129384  29.712   3.869   4.258
 2634CHOL    R229385  29.614   3.542   4.188
 2634CHOL    R329386  29.705   3.780   4.676
 2634CHOL    R429387  29.664   3.468   4.485
 2634CHOL    R529388  29.867   3.551   4.186
 2634CHOL    R629389  29.861   3.552   4.654
 2634CHOL    C129390  29.653   3.474   4.934
 2634CHOL    C229391  29.480   3.500   5.301
 2635CHOL   ROH29392  15.058  22.465   5.268
 2635CHOL    R129393  15.286  22.527   5.629
 2635CHOL    R229394  14.945  22.577   5.578
 2635CHOL    R329395  15.233  22.594   6.048
 2635CHOL    R429396  14.903  22.571   5.885
 2635CHOL    R529397  14.983  22.331   5.615
 2635CHOL    R629398  15.024  22.415   6.073
 2635CHOL    C129399  14.946  22.657   6.324
 2635CHOL    C229400  14.954  22.804   6.729
 2636CHOL   ROH29401  16.517  18.770   7.344
 2636CHOL    R129402  16.538  19.117   7.089
 2636CHOL    R229403  16.621  18.788   7.012
 2636CHOL    R329404  16.587  19.224   6.678
 2636CHOL    R429405  16.602  18.858   6.710
 2636CHOL    R529406  16.370  18.811   6.996
 2636CHOL    R629407  16.425  19.021   6.582
 2636CHOL    C129408  16.659  19.063   6.315
 2636CHOL    C229409  16.607  19.335   5.955
 2637CHOL   ROH29410  13.103  24.150   6.570
 2637CHOL    R129411  12.775  24.206   6.295
 2637CHOL    R229412  13.116  24.196   6.225
 2637CHOL    R329413  12.690  24.205   5.876
 2637CHOL    R429414  13.049  24.141   5.927
 2637CHOL    R529415  13.034  23.959   6.249
 2637CHOL    R629416  12.850  23.987   5.820
 2637CHOL    C129417  12.870  24.174   5.516
 2637CHOL    C229418  12.798  24.338   5.136
 2638CHOL   ROH29419   0.752  22.592   4.343
 2638CHOL    R129420   0.554  22.499   4.714
 2638CHOL    R229421   0.896  22.510   4.650
 2638CHOL    R329422   0.635  22.452   5.131
 2638CHOL    R429423   0.948  22.531   4.955
 2638CHOL    R529424   0.815  22.746   4.684
 2638CHOL    R629425   0.808  22.668   5.145
 2638CHOL    C129426   0.939  22.450   5.396
 2638CHOL    C229427   0.906  22.370   5.821
 2639CHOL   ROH29428  11.028  28.366   5.430
 2639CHOL    R129429  11.116  28.205   5.040
 2639CHOL    R229430  10.830  28.373   5.144
 2639CHOL    R329431  10.976  28.219   4.636
 2639CHOL    R429432  10.759  28.429   4.847
 2639CHOL    R529433  11.008  28.545   5.096
 2639CHOL    R629434  10.925  28.491   4.639
 2639CHOL    C129435  10.679  28.370   4.409
 2639CHOL    C229436  10.596  28.281   3.972
 2640CHOL   ROH29437   8.784  28.471   6.651
 2640CHOL    R129438   8.551  28.664   6.344
 2640CHOL    R229439   8.818  28.444   6.305
 2640CHOL    R329440   8.478  28.647   5.923
 2640CHOL    R429441   8.728  28.392   6.013
 2640CHOL    R529442   8.611  28.308   6.355
 2640CHOL    R629443   8.475  28.371   5.912
 2640CHOL    C129444   8.599  28.459   5.588
 2640CHOL    C229445   8.425  28.418   5.192
 2641CHOL   ROH29446   7.050  23.570   3.872
 2641CHOL    R129447   7.358  23.331   4.057
 2641CHOL    R229448   7.052  23.429   4.192
 2641CHOL    R329449   7.423  23.077   4.395
 2641CHOL    R429450   7.078  23.205   4.404
 2641CHOL    R529451   7.011  23.231   4.041
 2641CHOL    R629452   7.176  22.952   4.378
 2641CHOL    C129453   7.242  22.941   4.729
 2641CHOL    C229454   7.394  22.666   4.987
 2642CHOL   ROH29455   9.548  19.067   6.930
 2642CHOL    R129456   9.508  19.261   6.546
 2642CHOL    R229457   9.612  18.935   6.613
 2642CHOL    R329458   9.500  19.170   6.128
 2642CHOL    R429459   9.552  18.860   6.319
 2642CHOL    R529460   9.360  18.941   6.624
 2642CHOL    R629461   9.348  18.941   6.157
 2642CHOL    C129462   9.546  18.864   5.869
 2642CHOL    C229463   9.435  18.826   5.430
 2643CHOL   ROH29464  20.124  17.918   4.304
 2643CHOL    R129465  20.392  17.997   4.633
 2643CHOL    R229466  20.046  18.037   4.622
 2643CHOL    R329467  20.387  18.077   5.053
 2643CHOL    R429468  20.041  18.040   4.932
 2643CHOL    R529469  20.095  17.793   4.662
 2643CHOL    R629470  20.188  17.893   5.109
 2643CHOL    C129471  20.133  18.141   5.360
 2643CHOL    C229472  20.228  18.325   5.751
 2644CHOL   ROH29473  32.872  30.218   7.198
 2644CHOL    R129474  32.935  29.899   6.915
 2644CHOL    R229475  32.911  30.240   6.852
 2644CHOL    R329476  33.052  29.834   6.509
 2644CHOL    R429477  33.048  30.195   6.578
 2644CHOL    R529478  33.145  30.192   6.935
 2644CHOL    R629479  33.251  30.025   6.512
 2644CHOL    C129480  33.145  30.032   6.171
 2644CHOL    C229481  33.445  29.920   5.874
 2645CHOL   ROH29482  25.320  28.357   6.853
 2645CHOL    R129483  25.303  28.619   6.510
 2645CHOL    R229484  25.332  28.272   6.515
 2645CHOL    R329485  25.249  28.607   6.086
 2645CHOL    R429486  25.238  28.264   6.220
 2645CHOL    R529487  25.089  28.331   6.552
 2645CHOL    R629488  25.049  28.416   6.094
 2645CHOL    C129489  25.205  28.349   5.780
 2645CHOL    C229490  25.399  28.534   5.413
 2646CHOL   ROH29491   1.035   6.373   6.532
 2646CHOL    R129492   1.078   6.301   6.109
 2646CHOL    R229493   0.889   6.547   6.267
 2646CHOL    R329494   0.998   6.484   5.731
 2646CHOL    R429495   0.880   6.705   6.001
 2646CHOL    R529496   1.129   6.623   6.262
 2646CHOL    R629497   1.075   6.738   5.812
 2646CHOL    C129498   0.824   6.809   5.568
 2646CHOL    C229499   0.735   7.059   5.189
 2647CHOL   ROH29500   6.472  15.497   3.984
 2647CHOL    R129501   6.193  15.412   4.302
 2647CHOL    R229502   6.523  15.308   4.273
 2647CHOL    R329503   6.180  15.257   4.700
 2647CHOL    R429504   6.527  15.247   4.577
 2647CHOL    R529505   6.523  15.546   4.358
 2647CHOL    R629506   6.411  15.385   4.782
 2647CHOL    C129507   6.414  15.089   4.982
 2647CHOL    C229508   6.295  14.775   5.254
 2648CHOL   ROH29509  20.244  14.165   6.955
 2648CHOL    R129510  20.585  14.257   6.708
 2648CHOL    R229511  20.284  14.112   6.613
 2648CHOL    R329512  20.699  14.288   6.297
 2648CHOL    R429513  20.346  14.186   6.318
 2648CHOL    R529514  20.248  14.361   6.630
 2648CHOL    R629515  20.463  14.411   6.217
 2648CHOL    C129516  20.557  14.229   5.924
 2648CHOL    C229517  20.785  14.317   5.532
 2649CHOL   ROH29518  18.805   3.333   5.120
 2649CHOL    R129519  18.858   3.020   5.412
 2649CHOL    R229520  18.578   3.220   5.358
 2649CHOL    R329521  18.632   2.780   5.685
 2649CHOL    R429522  18.406   3.013   5.512
 2649CHOL    R529523  18.577   3.037   5.185
 2649CHOL    R629524  18.421   2.741   5.511
 2649CHOL    C129525  18.259   2.731   5.830
 2649CHOL    C229526  18.322   2.718   6.279
 2650CHOL   ROH29527  21.779   0.535   7.054
 2650CHOL    R129528  21.584   0.619   6.679
 2650CHOL    R229529  21.918   0.539   6.734
 2650CHOL    R329530  21.649   0.588   6.257
 2650CHOL    R429531  21.946   0.464   6.435
 2650CHOL    R529532  21.785   0.325   6.738
 2650CHOL    R629533  21.768   0.338   6.271
 2650CHOL    C129534  21.929   0.484   5.986
 2650CHOL    C229535  21.957   0.568   5.532
 2651CHOL   ROH29536   7.313  33.994   6.614
 2651CHOL    R129537   7.322  34.112   6.199
 2651CHOL    R229538   7.296  33.791   6.331
 2651CHOL    R329539   7.247  33.955   5.808
 2651CHOL    R429540   7.188  33.691   6.058
 2651CHOL    R529541   7.067  33.898   6.341
 2651CHOL    R629542   7.020  33.815   5.883
 2651CHOL    C129543   7.149  33.614   5.617
 2651CHOL    C229544   7.097  33.669   5.203
 2652CHOL   ROH29545  14.289  14.280   6.615
 2652CHOL    R129546  14.272  14.127   6.212
 2652CHOL    R229547  14.029  14.308   6.385
 2652CHOL    R329548  14.041  14.162   5.854
 2652CHOL    R429549  13.894  14.377   6.114
 2652CHOL    R529550  14.201  14.471   6.299
 2652CHOL    R629551  14.009  14.437   5.874
 2652CHOL    C129552  13.709  14.338   5.707
 2652CHOL    C229553  13.529  14.091   5.399
 2653CHOL   ROH29554  33.215   1.811   6.734
 2653CHOL    R129555  32.886   1.974   6.506
 2653CHOL    R229556  33.227   2.004   6.443
 2653CHOL    R329557  32.802   2.154   6.128
 2653CHOL    R429558  33.162   2.082   6.150
 2653CHOL    R529559  33.152   1.777   6.361
 2653CHOL    R629560  32.968   1.985   5.985
 2653CHOL    C129561  32.983   2.287   5.793
 2653CHOL    C229562  32.723   2.551   5.544
 2654CHOL   ROH29563   6.743   5.707   6.848
 2654CHOL    R129564   6.785   5.990   6.526
 2654CHOL    R229565   6.856   5.650   6.523
 2654CHOL    R329566   6.848   6.006   6.103
 2654CHOL    R429567   6.847   5.654   6.213
 2654CHOL    R529568   6.607   5.677   6.494
 2654CHOL    R629569   6.681   5.792   6.047
 2654CHOL    C129570   6.923   5.769   5.785
 2654CHOL    C229571   6.950   5.870   5.339
 2655CHOL   ROH29572   8.708  15.844   7.315
 2655CHOL    R129573   8.586  15.550   7.023
 2655CHOL    R229574   8.505  15.889   7.034
 2655CHOL    R329575   8.406  15.522   6.636
 2655CHOL    R429576   8.427  15.876   6.735
 2655CHOL    R529577   8.737  15.867   6.937
 2655CHOL    R629578   8.544  15.737   6.531
 2655CHOL    C129579   8.237  15.748   6.348
 2655CHOL    C229580   8.125  15.535   5.987
 2656CHOL   ROH29581  23.342  28.383   5.159
 2656CHOL    R129582  23.517  28.004   5.049
 2656CHOL    R229583  23.195  28.066   5.165
 2656CHOL    R329584  23.407  27.599   4.966
 2656CHOL    R429585  23.106  27.791   5.054
 2656CHOL    R529586  23.201  28.123   4.919
 2656CHOL    R629587  23.180  27.666   4.823
 2656CHOL    C129588  23.089  27.351   4.966
 2656CHOL    C229589  23.055  27.007   4.687
 2657CHOL   ROH29590   0.014  28.860   6.586
 2657CHOL    R129591   0.062  28.522   6.321
 2657CHOL    R229592  -0.039  28.845   6.241
 2657CHOL    R329593   0.082  28.427   5.905
 2657CHOL    R429594   0.029  28.789   5.944
 2657CHOL    R529595   0.212  28.845   6.261
 2657CHOL    R629596   0.237  28.646   5.839
 2657CHOL    C129597   0.048  28.594   5.540
 2657CHOL    C229598   0.038  28.225   5.314
 2658CHOL   ROH29599  32.225  13.664   5.451
 2658CHOL    R129600  32.189  13.276   5.268
 2658CHOL    R229601  32.476  13.468   5.307
 2658CHOL    R329602  32.429  12.949   5.131
 2658CHOL    R429603  32.648  13.215   5.261
 2658CHOL    R529604  32.429  13.352   5.526
 2658CHOL    R629605  32.604  12.958   5.345
 2658CHOL    C129606  32.813  12.838   5.081
 2658CHOL    C229607  32.883  12.401   5.096
 2659CHOL   ROH29608  20.597  32.146   4.187
 2659CHOL    R129609  20.398  32.231   4.560
 2659CHOL    R229610  20.434  31.924   4.402
 2659CHOL    R329611  20.237  32.033   4.904
 2659CHOL    R429612  20.370  31.782   4.670
 2659CHOL    R529613  20.650  31.975   4.523
 2659CHOL    R629614  20.444  31.850   4.924
 2659CHOL    C129615  20.167  31.665   5.053
 2659CHOL    C229616  19.880  31.421   5.284
 2660CHOL   ROH29617  27.373  14.183   3.788
 2660CHOL    R129618  27.041  14.213   4.060
 2660CHOL    R229619  27.352  14.068   4.116
 2660CHOL    R329620  26.945  14.166   4.475
 2660CHOL    R429621  27.301  14.086   4.421
 2660CHOL    R529622  27.376  14.318   4.143
 2660CHOL    R629623  27.179  14.283   4.565
 2660CHOL    C129624  27.107  14.048   4.825
 2660CHOL    C229625  27.035  13.979   5.268
 2661CHOL   ROH29626  34.353  29.363   7.366
 2661CHOL    R129627  34.297  29.221   6.963
 2661CHOL    R229628  34.260  29.545   7.084
 2661CHOL    R329629  34.251  29.366   6.563
 2661CHOL    R429630  34.282  29.652   6.793
 2661CHOL    R529631  34.507  29.503   7.048
 2661CHOL    R629632  34.441  29.565   6.589
 2661CHOL    C129633  34.214  29.708   6.353
 2661CHOL    C229634  33.974  29.730   6.005
 2662CHOL   ROH29635  23.000  14.645   7.242
 2662CHOL    R129636  23.251  14.794   6.925
 2662CHOL    R229637  22.988  14.567   6.902
 2662CHOL    R329638  23.272  14.809   6.498
 2662CHOL    R429639  22.971  14.623   6.598
 2662CHOL    R529640  22.890  14.800   6.913
 2662CHOL    R629641  23.002  14.858   6.463
 2662CHOL    C129642  23.085  14.676   6.167
 2662CHOL    C229643  23.267  14.801   5.804
 2663CHOL   ROH29644   7.821  19.834   4.386
 2663CHOL    R129645   7.533  19.823   4.707
 2663CHOL    R229646   7.752  19.572   4.606
 2663CHOL    R329647   7.425  19.591   5.049
 2663CHOL    R429648   7.713  19.434   4.881
 2663CHOL    R529649   7.881  19.736   4.748
 2663CHOL    R629650   7.687  19.545   5.129
 2663CHOL    C129651   7.520  19.250   5.243
 2663CHOL    C229652   7.211  19.089   5.543
 2664CHOL   ROH29653  18.562  32.217   6.654
 2664CHOL    R129654  18.803  32.365   6.327
 2664CHOL    R229655  18.463  32.292   6.328
 2664CHOL    R329656  18.764  32.536   5.937
 2664CHOL    R429657  18.429  32.464   6.072
 2664CHOL    R529658  18.494  32.519   6.433
 2664CHOL    R629659  18.551  32.699   6.005
 2664CHOL    C129660  18.488  32.632   5.660
 2664CHOL    C229661  18.705  32.746   5.291
 2665CHOL   ROH29662  30.970  25.305   6.657
 2665CHOL    R129663  31.028  25.634   6.384
 2665CHOL    R229664  31.053  25.293   6.319
 2665CHOL    R329665  31.065  25.716   5.966
 2665CHOL    R429666  31.025  25.353   6.016
 2665CHOL    R529667  30.809  25.355   6.317
 2665CHOL    R629668  30.868  25.538   5.890
 2665CHOL    C129669  31.087  25.532   5.608
 2665CHOL    C229670  31.233  25.744   5.249
 2666CHOL   ROH29671  31.874  28.259   7.337
 2666CHOL    R129672  31.598  28.183   7.014
 2666CHOL    R229673  31.877  28.391   7.014
 2666CHOL    R329674  31.557  28.241   6.592
 2666CHOL    R429675  31.877  28.385   6.704
 2666CHOL    R529676  31.956  28.153   6.981
 2666CHOL    R629677  31.821  28.178   6.535
 2666CHOL    C129678  31.741  28.413   6.276
 2666CHOL    C229679  31.681  28.391   5.853
 2667CHOL   ROH29680  10.942  17.524   6.116
 2667CHOL    R129681  10.953  17.618   5.695
 2667CHOL    R229682  10.880  17.313   5.845
 2667CHOL    R329683  10.838  17.457   5.315
 2667CHOL    R429684  10.748  17.219   5.581
 2667CHOL    R529685  10.673  17.456   5.855
 2667CHOL    R629686  10.595  17.360   5.405
 2667CHOL    C129687  10.679  17.127   5.147
 2667CHOL    C229688  10.655  17.019   4.732
 2668CHOL   ROH29689  10.746  13.130   7.041
 2668CHOL    R129690  10.922  12.891   6.729
 2668CHOL    R229691  10.654  13.110   6.706
 2668CHOL    R329692  10.923  12.848   6.304
 2668CHOL    R429693  10.693  13.119   6.398
 2668CHOL    R529694  10.866  13.246   6.700
 2668CHOL    R629695  10.925  13.120   6.254
 2668CHOL    C129696  10.747  12.992   5.971
 2668CHOL    C229697  11.048  12.938   5.661
 2669CHOL   ROH29698   2.260   2.819   3.603
 2669CHOL    R129699   1.977   3.056   3.825
 2669CHOL    R229700   2.234   2.856   3.948
 2669CHOL    R329701   1.908   3.208   4.219
 2669CHOL    R429702   2.217   3.008   4.218
 2669CHOL    R529703   2.334   3.075   3.873
 2669CHOL    R629704   2.173   3.273   4.265
 2669CHOL    C129705   2.056   3.195   4.594
 2669CHOL    C229706   2.004   3.334   4.990
 2670CHOL   ROH29707  26.084  19.811   6.865
 2670CHOL    R129708  25.716  19.771   6.644
 2670CHOL    R229709  25.982  19.986   6.581
 2670CHOL    R329710  25.538  19.884   6.272
 2670CHOL    R429711  25.879  20.023   6.292
 2670CHOL    R529712  26.043  19.758   6.491
 2670CHOL    R629713  25.767  19.840   6.123
 2670CHOL    C129714  25.609  20.104   5.942
 2670CHOL    C229715  25.265  20.312   5.759
 2671CHOL   ROH29716  18.767  16.546   3.839
 2671CHOL    R129717  18.581  16.690   4.200
 2671CHOL    R229718  18.910  16.589   4.154
 2671CHOL    R329719  18.680  16.829   4.592
 2671CHOL    R429720  18.989  16.739   4.413
 2671CHOL    R529721  18.888  16.825   4.067
 2671CHOL    R629722  18.898  16.978   4.509
 2671CHOL    C129723  18.994  16.882   4.840
 2671CHOL    C229724  18.945  16.845   5.271
 2672CHOL   ROH29725  17.942   0.691   7.285
 2672CHOL    R129726  18.011   0.503   6.903
 2672CHOL    R229727  17.823   0.787   6.971
 2672CHOL    R329728  17.967   0.575   6.484
 2672CHOL    R429729  17.840   0.865   6.672
 2672CHOL    R529730  18.066   0.854   6.965
 2672CHOL    R629731  18.048   0.839   6.498
 2672CHOL    C129732  17.819   0.845   6.223
 2672CHOL    C229733  17.952   0.795   5.800
 2673CHOL   ROH29734  35.497  11.909   3.684
 2673CHOL    R129735  35.551  11.721   4.069
 2673CHOL    R229736  35.398  12.026   3.998
 2673CHOL    R329737  35.417  11.751   4.474
 2673CHOL    R429738  35.259  12.017   4.274
 2673CHOL    R529739  35.232  11.842   3.949
 2673CHOL    R629740  35.154  11.803   4.408
 2673CHOL    C129741  35.190  11.980   4.717
 2673CHOL    C229742  35.078  11.881   5.136
 2674CHOL   ROH29743  14.273  30.677   4.275
 2674CHOL    R129744  14.238  31.044   4.500
 2674CHOL    R229745  14.222  30.717   4.618
 2674CHOL    R329746  14.239  31.187   4.903
 2674CHOL    R429747  14.279  30.821   4.904
 2674CHOL    R529748  14.465  30.777   4.587
 2674CHOL    R629749  14.445  31.022   4.985
 2674CHOL    C129750  14.253  31.059   5.285
 2674CHOL    C229751  14.204  31.189   5.698
 2675CHOL   ROH29752   8.823   1.108   6.796
 2675CHOL    R129753   9.020   0.904   6.472
 2675CHOL    R229754   8.688   1.005   6.491
 2675CHOL    R329755   8.963   0.800   6.061
 2675CHOL    R429756   8.666   0.981   6.183
 2675CHOL    R529757   8.827   1.206   6.429
 2675CHOL    R629758   8.850   1.043   5.991
 2675CHOL    C129759   8.689   0.818   5.765
 2675CHOL    C229760   8.790   0.788   5.348
 2676CHOL   ROH29761  21.791  32.740   6.896
 2676CHOL    R129762  21.893  32.695   6.479
 2676CHOL    R229763  21.582  32.654   6.630
 2676CHOL    R329764  21.710  32.659   6.094
 2676CHOL    R429765  21.448  32.683   6.352
 2676CHOL    R529766  21.620  32.901   6.597
 2676CHOL    R629767  21.514  32.848   6.145
 2676CHOL    C129768  21.349  32.626   5.917
 2676CHOL    C229769  21.129  32.469   5.591
 2677CHOL   ROH29770  18.044  10.503   7.370
 2677CHOL    R129771  18.198  10.216   7.086
 2677CHOL    R229772  18.020  10.508   7.022
 2677CHOL    R329773  18.272  10.171   6.667
 2677CHOL    R429774  18.121  10.501   6.729
 2677CHOL    R529775  18.260  10.571   7.065
 2677CHOL    R629776  18.366  10.429   6.632
 2677CHOL    C129777  18.218  10.358   6.314
 2677CHOL    C229778  18.359  10.072   6.035
 2678CHOL   ROH29779  12.752  17.215   7.127
 2678CHOL    R129780  12.914  17.063   6.757
 2678CHOL    R229781  12.586  17.161   6.825
 2678CHOL    R329782  12.814  17.024   6.343
 2678CHOL    R429783  12.534  17.184   6.521
 2678CHOL    R529784  12.722  17.369   6.781
 2678CHOL    R629785  12.699  17.275   6.323
 2678CHOL    C129786  12.513  17.087   6.082
 2678CHOL    C229787  12.511  16.882   5.695
 2679CHOL   ROH29788   3.760  16.726   6.975
 2679CHOL    R129789   3.519  16.705   6.617
 2679CHOL    R229790   3.859  16.636   6.653
 2679CHOL    R329791   3.532  16.555   6.217
 2679CHOL    R429792   3.851  16.480   6.385
 2679CHOL    R529793   3.730  16.435   6.732
 2679CHOL    R629794   3.656  16.317   6.286
 2679CHOL    C129795   3.779  16.373   5.955
 2679CHOL    C229796   3.587  16.332   5.544
 2680CHOL   ROH29797  25.163  30.391   6.277
 2680CHOL    R129798  25.385  30.399   5.907
 2680CHOL    R229799  25.049  30.325   5.954
 2680CHOL    R329800  25.325  30.397   5.484
 2680CHOL    R429801  24.999  30.378   5.653
 2680CHOL    R529802  25.074  30.576   5.957
 2680CHOL    R629803  25.108  30.568   5.491
 2680CHOL    C129804  25.035  30.365   5.205
 2680CHOL    C229805  25.029  30.388   4.771
 2681CHOL   ROH29806  28.579   6.962   7.018
 2681CHOL    R129807  28.775   6.834   6.656
 2681CHOL    R229808  28.441   6.920   6.700
 2681CHOL    R329809  28.713   6.816   6.233
 2681CHOL    R429810  28.415   6.960   6.394
 2681CHOL    R529811  28.575   7.133   6.679
 2681CHOL    R629812  28.594   7.065   6.217
 2681CHOL    C129813  28.434   6.888   5.951
 2681CHOL    C229814  28.503   6.789   5.539
 2682CHOL   ROH29815   4.716   5.781   6.789
 2682CHOL    R129816   4.941   5.866   6.431
 2682CHOL    R229817   4.782   5.569   6.520
 2682CHOL    R329818   5.018   5.706   6.042
 2682CHOL    R429819   4.792   5.479   6.224
 2682CHOL    R529820   4.607   5.726   6.429
 2682CHOL    R629821   4.756   5.627   5.997
 2682CHOL    C129822   4.941   5.384   5.811
 2682CHOL    C229823   5.201   5.387   5.465
 2683CHOL   ROH29824  25.143   0.817   3.875
 2683CHOL    R129825  24.902   0.662   4.197
 2683CHOL    R229826  25.240   0.609   4.137
 2683CHOL    R329827  24.940   0.467   4.576
 2683CHOL    R429828  25.274   0.519   4.432
 2683CHOL    R529829  25.215   0.834   4.248
 2683CHOL    R629830  25.157   0.618   4.658
 2683CHOL    C129831  25.215   0.306   4.823
 2683CHOL    C229832  25.160  -0.008   5.125
 2684CHOL   ROH29833  24.723   7.480   7.585
 2684CHOL    R129834  24.467   7.694   7.312
 2684CHOL    R229835  24.788   7.572   7.255
 2684CHOL    R329836  24.431   7.790   6.897
 2684CHOL    R429837  24.737   7.592   6.950
 2684CHOL    R529838  24.626   7.380   7.232
 2684CHOL    R629839  24.509   7.540   6.808
 2684CHOL    C129840  24.625   7.753   6.545
 2684CHOL    C229841  24.621   8.035   6.196
 2685CHOL   ROH29842  30.380   5.119   3.649
 2685CHOL    R129843  30.436   4.897   4.015
 2685CHOL    R229844  30.152   5.067   3.908
 2685CHOL    R329845  30.213   4.732   4.341
 2685CHOL    R429846  29.983   4.904   4.111
 2685CHOL    R529847  30.158   4.844   3.790
 2685CHOL    R629848  30.005   4.642   4.183
 2685CHOL    C129849  29.839   4.714   4.492
 2685CHOL    C229850  29.826   4.592   4.928
 2686CHOL   ROH29851   2.421  15.228   4.659
 2686CHOL    R129852   2.005  15.265   4.770
 2686CHOL    R229853   2.277  15.192   4.975
 2686CHOL    R329854   1.756  15.301   5.115
 2686CHOL    R429855   2.108  15.273   5.221
 2686CHOL    R529856   2.273  15.442   4.936
 2686CHOL    R629857   1.926  15.475   5.248
 2686CHOL    C129858   1.772  15.299   5.518
 2686CHOL    C229859   1.587  15.187   5.907
 2687CHOL   ROH29860   2.854  35.535   7.296
 2687CHOL    R129861   3.100  35.742   7.008
 2687CHOL    R229862   2.954  35.427   6.980
 2687CHOL    R329863   3.215  35.724   6.597
 2687CHOL    R429864   2.991  35.442   6.672
 2687CHOL    R529865   2.777  35.600   6.930
 2687CHOL    R629866   2.963  35.656   6.505
 2687CHOL    C129867   3.176  35.496   6.266
 2687CHOL    C229868   3.361  35.531   5.863
 2688CHOL   ROH29869   9.226   1.485   6.783
 2688CHOL    R129870   9.390   1.561   6.392
 2688CHOL    R229871   9.204   1.287   6.497
 2688CHOL    R329872   9.364   1.422   5.988
 2688CHOL    R429873   9.142   1.220   6.201
 2688CHOL    R529874   9.044   1.476   6.450
 2688CHOL    R629875   9.090   1.388   5.993
 2688CHOL    C129876   9.192   1.135   5.763
 2688CHOL    C229877   9.194   1.084   5.339
 2689CHOL   ROH29878  21.621  24.861   4.093
 2689CHOL    R129879  21.472  24.579   4.383
 2689CHOL    R229880  21.758  24.776   4.402
 2689CHOL    R329881  21.528  24.460   4.790
 2689CHOL    R429882  21.763  24.731   4.709
 2689CHOL    R529883  21.560  24.919   4.463
 2689CHOL    R629884  21.555  24.718   4.886
 2689CHOL    C129885  21.760  24.532   5.112
 2689CHOL    C229886  21.877  24.416   5.512
 2690CHOL   ROH29887   6.325  29.665   6.823
 2690CHOL    R129888   6.004  29.670   6.535
 2690CHOL    R229889   6.333  29.774   6.492
 2690CHOL    R329890   5.934  29.720   6.116
 2690CHOL    R429891   6.294  29.756   6.185
 2690CHOL    R529892   6.327  29.523   6.470
 2690CHOL    R629893   6.155  29.573   6.039
 2690CHOL    C129894   6.124  29.809   5.772
 2690CHOL    C229895   6.080  29.733   5.346
 2691CHOL   ROH29896  31.181  33.778   6.580
 2691CHOL    R129897  30.832  33.576   6.427
 2691CHOL    R229898  31.097  33.713   6.248
 2691CHOL    R329899  30.680  33.402   6.067
 2691CHOL    R429900  31.015  33.541   6.003
 2691CHOL    R529901  31.170  33.488   6.335
 2691CHOL    R629902  30.921  33.285   5.995
 2691CHOL    C129903  30.771  33.350   5.677
 2691CHOL    C229904  30.616  33.181   5.309
 2692CHOL   ROH29905  33.931  20.572   5.263
 2692CHOL    R129906  34.238  20.876   5.281
 2692CHOL    R229907  33.902  20.903   5.370
 2692CHOL    R329908  34.312  21.263   5.446
 2692CHOL    R429909  33.971  21.156   5.535
 2692CHOL    R529910  34.025  20.791   5.560
 2692CHOL    R629911  34.191  21.208   5.689
 2692CHOL    C129912  34.131  21.559   5.653
 2692CHOL    C229913  34.346  21.919   5.769
 2693CHOL   ROH29914  29.646  34.197   6.797
 2693CHOL    R129915  29.646  33.934   6.455
 2693CHOL    R229916  29.399  34.159   6.553
 2693CHOL    R329917  29.435  33.866   6.088
 2693CHOL    R429918  29.281  34.148   6.267
 2693CHOL    R529919  29.580  34.289   6.434
 2693CHOL    R629920  29.410  34.135   6.026
 2693CHOL    C129921  29.116  33.994   5.878
 2693CHOL    C229922  29.175  33.885   5.460
 2694CHOL   ROH29923  26.675  35.787   3.823
 2694CHOL    R129924  27.014  35.926   4.051
 2694CHOL    R229925  26.704  35.820   4.169
 2694CHOL    R329926  27.161  35.940   4.452
 2694CHOL    R429927  26.829  35.779   4.449
 2694CHOL    R529928  26.842  35.615   4.117
 2694CHOL    R629929  27.076  35.684   4.516
 2694CHOL    C129930  27.055  35.852   4.831
 2694CHOL    C229931  27.417  35.847   5.086
 2695CHOL   ROH29932  17.073  15.250   3.858
 2695CHOL    R129933  17.059  14.887   4.091
 2695CHOL    R229934  17.209  15.190   4.173
 2695CHOL    R329935  17.134  14.744   4.487
 2695CHOL    R429936  17.211  15.103   4.471
 2695CHOL    R529937  16.962  15.210   4.219
 2695CHOL    R629938  17.023  14.964   4.612
 2695CHOL    C129939  17.275  14.863   4.845
 2695CHOL    C229940  17.566  14.673   5.072
 2696CHOL   ROH29941  24.332   7.507   3.936
 2696CHOL    R129942  24.186   7.586   4.334
 2696CHOL    R229943  24.325   7.292   4.210
 2696CHOL    R329944  24.193   7.420   4.729
 2696CHOL    R429945  24.378   7.198   4.501
 2696CHOL    R529946  24.514   7.449   4.265
 2696CHOL    R629947  24.459   7.344   4.717
 2696CHOL    C129948  24.318   7.097   4.934
 2696CHOL    C229949  24.323   6.964   5.358
 2697CHOL   ROH29950  31.898  13.098   6.416
 2697CHOL    R129951  31.696  13.178   6.044
 2697CHOL    R229952  31.621  12.934   6.281
 2697CHOL    R329953  31.335  13.083   5.835
 2697CHOL    R429954  31.338  12.907   6.158
 2697CHOL    R529955  31.526  13.153   6.361
 2697CHOL    R629956  31.173  13.101   6.059
 2697CHOL    C129957  31.003  12.855   5.863
 2697CHOL    C229958  30.836  12.743   5.491
 2698CHOL   ROH29959  24.809  22.360   3.700
 2698CHOL    R129960  24.709  22.630   4.022
 2698CHOL    R229961  24.761  22.286   4.037
 2698CHOL    R329962  24.693  22.645   4.449
 2698CHOL    R429963  24.804  22.310   4.343
 2698CHOL    R529964  24.987  22.399   4.034
 2698CHOL    R629965  24.930  22.506   4.485
 2698CHOL    C129966  24.743  22.414   4.776
 2698CHOL    C229967  24.871  22.652   5.115
 2699CHOL   ROH29968  12.164  26.950   3.963
 2699CHOL    R129969  12.166  27.168   4.335
 2699CHOL    R229970  11.891  27.063   4.149
 2699CHOL    R329971  11.905  27.286   4.652
 2699CHOL    R429972  11.713  27.098   4.400
 2699CHOL    R529973  11.976  26.866   4.282
 2699CHOL    R629974  11.770  27.045   4.662
 2699CHOL    C129975  11.517  27.276   4.763
 2699CHOL    C229976  11.605  27.372   5.154
 2700CHOL   ROH29977  33.187  12.426   4.008
 2700CHOL    R129978  33.296  12.658   4.356
 2700CHOL    R229979  33.216  12.320   4.339
 2700CHOL    R329980  33.414  12.609   4.764
 2700CHOL    R429981  33.352  12.278   4.614
 2700CHOL    R529982  33.456  12.347   4.266
 2700CHOL    R629983  33.579  12.392   4.714
 2700CHOL    C129984  33.466  12.326   5.047
 2700CHOL    C229985  33.481  12.340   5.485
 2701CHOL   ROH29986  34.017  22.135   4.135
 2701CHOL    R129987  33.701  22.351   4.334
 2701CHOL    R229988  34.045  22.385   4.377
 2701CHOL    R329989  33.638  22.695   4.580
 2701CHOL    R429990  33.997  22.662   4.506
 2701CHOL    R529991  33.979  22.512   4.169
 2701CHOL    R629992  33.816  22.855   4.441
 2701CHOL    C129993  33.838  22.988   4.772
 2701CHOL    C229994  33.719  23.282   5.093
 2702CHOL   ROH29995  32.699  22.918   3.970
 2702CHOL    R129996  32.639  23.025   4.383
 2702CHOL    R229997  32.514  22.749   4.212
 2702CHOL    R329998  32.495  22.861   4.751
 2702CHOL    R429999  32.461  22.609   4.484
 2702CHOL    R530000  32.754  22.700   4.276
 2702CHOL    R630001  32.611  22.613   4.712
 2702CHOL    C130002  32.320  22.531   4.903
 2702CHOL    C230003  32.162  22.377   5.299
 2703POPC   NC330004  27.057  10.485   3.867
 2703POPC   PO430005  27.355  10.280   3.921
 2703POPC   GL130006  27.527  10.309   4.307
 2703POPC   GL230007  27.713  10.517   4.371
 2703POPC   C1A30008  27.333  10.245   4.665
 2703POPC   D2A30009  27.269  10.350   5.176
 2703POPC   C3A30010  27.165  10.679   5.488
 2703POPC   C4A30011  27.078  11.027   5.865
 2703POPC   C1B30012  27.768  10.812   4.604
 2703POPC   C2B30013  27.823  11.187   4.815
 2703POPC   C3B30014  27.914  11.534   5.127
 2703POPC   C4B30015  28.175  11.872   5.430
 2704POPC   NC330016  26.212   0.949   3.199
 2704POPC   PO430017  26.204   1.342   3.251
 2704POPC   GL130018  26.029   1.396   3.680
 2704POPC   GL230019  26.028   1.711   3.653
 2704POPC   C1A30020  25.878   1.090   3.975
 2704POPC   D2A30021  25.764   1.223   4.412
 2704POPC   C3A30022  25.938   1.670   4.286
 2704POPC   C4A30023  25.871   2.110   4.334
 2704POPC   C1B30024  26.099   1.947   3.947
 2704POPC   C2B30025  26.385   2.045   4.297
 2704POPC   C3B30026  26.705   1.987   4.671
 2704POPC   C4B30027  26.715   1.852   5.137
 2705POPC   NC330028  24.610  13.000   3.626
 2705POPC   PO430029  24.592  13.416   3.604
 2705POPC   GL130030  24.797  13.512   3.882
 2705POPC   GL230031  25.088  13.539   3.792
 2705POPC   C1A30032  24.922  13.749   4.172
 2705POPC   D2A30033  25.196  13.807   4.491
 2705POPC   C3A30034  24.946  13.934   4.868
 2705POPC   C4A30035  24.660  14.072   5.234
 2705POPC   C1B30036  25.284  13.843   3.857
 2705POPC   C2B30037  25.460  14.063   4.206
 2705POPC   C3B30038  25.673  14.088   4.613
 2705POPC   C4B30039  25.553  14.126   5.124
 2706POPC   NC330040   8.560  20.681   2.904
 2706POPC   PO430041   8.393  21.086   2.907
 2706POPC   GL130042   8.479  21.380   3.279
 2706POPC   GL230043   8.543  21.052   3.330
 2706POPC   C1A30044   8.359  21.662   3.606
 2706POPC   D2A30045   8.562  21.871   4.014
 2706POPC   C3A30046   8.903  21.852   4.359
 2706POPC   C4A30047   9.373  22.040   4.325
 2706POPC   C1B30048   8.586  20.862   3.667
 2706POPC   C2B30049   8.656  20.562   3.958
 2706POPC   C3B30050   8.902  20.580   4.387
 2706POPC   C4B30051   9.049  20.410   4.866
 2707POPC   NC330052  11.894   9.934   3.350
 2707POPC   PO430053  11.523   9.868   3.259
 2707POPC   GL130054  11.285   9.834   3.669
 2707POPC   GL230055  11.532   9.952   3.699
 2707POPC   C1A30056  11.444   9.685   4.123
 2707POPC   D2A30057  11.568   9.588   4.613
 2707POPC   C3A30058  11.983   9.660   4.829
 2707POPC   C4A30059  12.326   9.552   5.146
 2707POPC   C1B30060  11.800   9.806   3.916
 2707POPC   C2B30061  11.946   9.753   4.323
 2707POPC   C3B30062  12.346   9.875   4.554
 2707POPC   C4B30063  12.495   9.990   4.979
 2708POPC   NC330064  23.435  27.137   2.895
 2708POPC   PO430065  23.770  27.044   3.069
 2708POPC   GL130066  23.781  27.093   3.470
 2708POPC   GL230067  23.501  26.915   3.500
 2708POPC   C1A30068  24.027  27.079   3.738
 2708POPC   D2A30069  24.475  27.110   3.782
 2708POPC   C3A30070  24.705  27.122   4.154
 2708POPC   C4A30071  24.601  26.932   4.664
 2708POPC   C1B30072  23.682  26.815   3.838
 2708POPC   C2B30073  23.739  26.474   4.007
 2708POPC   C3B30074  23.902  26.246   4.355
 2708POPC   C4B30075  24.006  25.861   4.671
 2709POPC   NC330076  20.990  15.230   3.521
 2709POPC   PO430077  21.079  14.845   3.625
 2709POPC   GL130078  21.507  14.730   3.913
 2709POPC   GL230079  21.528  14.998   3.725
 2709POPC   C1A30080  21.455  14.624   4.370
 2709POPC   D2A30081  21.577  14.776   4.827
 2709POPC   C3A30082  21.738  14.660   5.257
 2709POPC   C4A30083  21.628  14.839   5.716
 2709POPC   C1B30084  21.671  15.238   3.966
 2709POPC   C2B30085  21.540  15.564   4.227
 2709POPC   C3B30086  21.255  15.938   4.471
 2709POPC   C4B30087  20.962  15.934   4.823
 2710POPC   NC330088  11.318  32.705   2.843
 2710POPC   PO430089  11.013  32.890   3.047
 2710POPC   GL130090  10.993  32.815   3.439
 2710POPC   GL230091  10.918  33.036   3.566
 2710POPC   C1A30092  11.119  32.485   3.688
 2710POPC   D2A30093  11.233  32.276   4.185
 2710POPC   C3A30094  11.079  32.130   4.570
 2710POPC   C4A30095  10.921  32.110   5.035
 2710POPC   C1B30096  10.977  32.883   3.903
 2710POPC   C2B30097  10.962  32.714   4.284
 2710POPC   C3B30098  11.034  32.657   4.689
 2710POPC   C4B30099  10.906  32.595   5.145
 2711POPC   NC330100  18.924   7.389   3.196
 2711POPC   PO430101  18.779   7.674   3.399
 2711POPC   GL130102  18.954   7.782   3.796
 2711POPC   GL230103  18.772   7.956   3.859
 2711POPC   C1A30104  18.947   7.435   4.157
 2711POPC   D2A30105  18.844   7.251   4.580
 2711POPC   C3A30106  18.552   7.420   4.860
 2711POPC   C4A30107  18.142   7.154   4.986
 2711POPC   C1B30108  18.637   7.910   4.167
 2711POPC   C2B30109  18.273   7.842   4.301
 2711POPC   C3B30110  17.847   7.707   4.368
 2711POPC   C4B30111  17.371   7.769   4.266
 2712POPC   NC330112   8.571  19.880   3.057
 2712POPC   PO430113   8.510  20.241   2.996
 2712POPC   GL130114   8.598  20.507   3.373
 2712POPC   GL230115   8.433  20.292   3.544
 2712POPC   C1A30116   8.969  20.653   3.580
 2712POPC   D2A30117   9.418  20.854   3.698
 2712POPC   C3A30118   9.880  20.904   3.756
 2712POPC   C4A30119  10.360  20.919   3.734
 2712POPC   C1B30120   8.289  20.329   3.899
 2712POPC   C2B30121   8.056  20.261   4.202
 2712POPC   C3B30122   7.981  20.233   4.726
 2712POPC   C4B30123   7.900  19.956   5.072
 2713POPC   NC330124  24.818   1.075   3.486
 2713POPC   PO430125  24.844   0.667   3.484
 2713POPC   GL130126  24.725   0.490   3.808
 2713POPC   GL230127  24.984   0.350   3.814
 2713POPC   C1A30128  24.416   0.535   4.210
 2713POPC   D2A30129  24.442   0.352   4.687
 2713POPC   C3A30130  24.750   0.360   5.005
 2713POPC   C4A30131  24.595   0.161   5.454
 2713POPC   C1B30132  24.827   0.225   4.127
 2713POPC   C2B30133  24.765   0.007   4.510
 2713POPC   C3B30134  24.934  -0.285   4.818
 2713POPC   C4B30135  25.138  -0.540   5.219
 2714POPC   NC330136  31.946  19.136   3.660
 2714POPC   PO430137  31.946  19.498   3.865
 2714POPC   GL130138  31.789  19.621   4.219
 2714POPC   GL230139  31.649  19.403   4.220
 2714POPC   C1A30140  31.489  19.797   4.441
 2714POPC   D2A30141  31.269  19.585   4.805
 2714POPC   C3A30142  31.007  19.821   5.042
 2714POPC   C4A30143  31.199  20.046   5.460
 2714POPC   C1B30144  31.641  19.281   4.571
 2714POPC   C2B30145  31.549  19.136   4.953
 2714POPC   C3B30146  31.453  19.071   5.459
 2714POPC   C4B30147  31.433  18.971   5.919
 2715POPC   NC330148   7.695  20.605   2.843
 2715POPC   PO430149   7.503  20.319   3.038
 2715POPC   GL130150   7.583  20.125   3.477
 2715POPC   GL230151   7.382  20.273   3.636
 2715POPC   C1A30152   7.943  20.092   3.703
 2715POPC   D2A30153   8.250  19.803   4.043
 2715POPC   C3A30154   8.285  19.863   4.485
 2715POPC   C4A30155   8.364  19.840   4.962
 2715POPC   C1B30156   7.582  20.285   3.974
 2715POPC   C2B30157   7.564  20.284   4.389
 2715POPC   C3B30158   7.508  20.192   4.913
 2715POPC   C4B30159   7.387  20.004   5.310
 2716POPC   NC330160  22.061  15.188   3.011
 2716POPC   PO430161  21.945  14.868   3.223
 2716POPC   GL130162  22.142  14.849   3.651
 2716POPC   GL230163  22.169  15.126   3.618
 2716POPC   C1A30164  21.935  14.620   3.989
 2716POPC   D2A30165  21.949  14.452   4.476
 2716POPC   C3A30166  21.772  14.046   4.613
 2716POPC   C4A30167  21.791  13.511   4.796
 2716POPC   C1B30168  22.069  15.229   4.020
 2716POPC   C2B30169  21.890  15.210   4.436
 2716POPC   C3B30170  21.623  15.327   4.816
 2716POPC   C4B30171  21.439  15.156   5.174
 2717POPC   NC330172   3.674  11.810   3.761
 2717POPC   PO430173   3.903  11.616   4.039
 2717POPC   GL130174   3.913  11.755   4.356
 2717POPC   GL230175   3.728  11.913   4.531
 2717POPC   C1A30176   3.882  11.488   4.710
 2717POPC   D2A30177   3.660  11.336   5.150
 2717POPC   C3A30178   3.925  11.368   5.514
 2717POPC   C4A30179   3.939  11.210   5.892
 2717POPC   C1B30180   3.507  11.748   4.759
 2717POPC   C2B30181   3.342  11.362   4.709
 2717POPC   C3B30182   3.169  10.881   4.732
 2717POPC   C4B30183   3.332  10.690   4.356
 2718POPC   NC330184  32.147   2.468   3.307
 2718POPC   PO430185  31.911   2.755   3.469
 2718POPC   GL130186  31.944   3.113   3.570
 2718POPC   GL230187  31.655   3.151   3.619
 2718POPC   C1A30188  32.065   3.289   3.973
 2718POPC   D2A30189  32.136   3.401   4.465
 2718POPC   C3A30190  31.891   3.320   4.814
 2718POPC   C4A30191  31.760   3.308   5.306
 2718POPC   C1B30192  31.563   3.336   3.921
 2718POPC   C2B30193  31.660   3.350   4.290
 2718POPC   C3B30194  31.407   3.150   4.684
 2718POPC   C4B30195  31.224   3.035   5.125
 2719POPC   NC330196  13.380  33.672   3.280
 2719POPC   PO430197  13.396  33.888   3.583
 2719POPC   GL130198  13.106  33.841   3.958
 2719POPC   GL230199  13.275  33.627   4.008
 2719POPC   C1A30200  12.924  33.942   4.300
 2719POPC   D2A30201  12.906  34.103   4.738
 2719POPC   C3A30202  12.598  33.820   4.967
 2719POPC   C4A30203  12.379  33.759   5.366
 2719POPC   C1B30204  13.287  33.525   4.349
 2719POPC   C2B30205  13.065  33.505   4.710
 2719POPC   C3B30206  12.912  33.487   5.196
 2719POPC   C4B30207  12.667  33.430   5.631
 2720POPC   NC330208  28.439  23.802   3.619
 2720POPC   PO430209  28.299  23.424   3.546
 2720POPC   GL130210  28.239  23.164   3.832
 2720POPC   GL230211  28.466  23.062   3.931
 2720POPC   C1A30212  28.013  22.910   3.998
 2720POPC   D2A30213  28.076  22.874   4.477
 2720POPC   C3A30214  28.042  22.537   4.824
 2720POPC   C4A30215  28.167  22.274   5.202
 2720POPC   C1B30216  28.415  23.033   4.256
 2720POPC   C2B30217  28.648  23.192   4.567
 2720POPC   C3B30218  28.897  23.561   4.727
 2720POPC   C4B30219  29.314  23.651   4.981
 2721POPC   NC330220  16.406  28.193   3.032
 2721POPC   PO430221  16.479  27.920   3.328
 2721POPC   GL130222  16.280  27.828   3.660
 2721POPC   GL230223  16.425  27.599   3.752
 2721POPC   C1A30224  15.962  27.813   3.969
 2721POPC   D2A30225  15.818  27.714   4.432
 2721POPC   C3A30226  15.928  27.711   4.906
 2721POPC   C4A30227  15.985  27.365   5.270
 2721POPC   C1B30228  16.397  27.556   4.115
 2721POPC   C2B30229  16.345  27.536   4.551
 2721POPC   C3B30230  16.488  27.396   4.988
 2721POPC   C4B30231  16.622  27.353   5.469
 2722POPC   NC330232  28.077  22.820   2.833
 2722POPC   PO430233  27.820  22.753   3.116
 2722POPC   GL130234  27.610  22.528   3.394
 2722POPC   GL230235  27.563  22.769   3.523
 2722POPC   C1A30236  27.274  22.472   3.640
 2722POPC   D2A30237  27.313  22.539   4.083
 2722POPC   C3A30238  27.170  22.628   4.459
 2722POPC   C4A30239  27.087  22.636   4.966
 2722POPC   C1B30240  27.516  22.887   3.844
 2722POPC   C2B30241  27.563  23.076   4.294
 2722POPC   C3B30242  27.621  23.309   4.709
 2722POPC   C4B30243  27.810  23.703   4.910
 2723POPC   NC330244  18.514  18.244   3.545
 2723POPC   PO430245  18.141  18.452   3.500
 2723POPC   GL130246  18.152  18.329   3.893
 2723POPC   GL230247  18.411  18.444   3.976
 2723POPC   C1A30248  17.998  18.404   4.227
 2723POPC   D2A30249  18.176  18.804   4.451
 2723POPC   C3A30250  18.166  19.242   4.549
 2723POPC   C4A30251  18.031  19.322   4.996
 2723POPC   C1B30252  18.526  18.599   4.276
 2723POPC   C2B30253  18.600  18.662   4.715
 2723POPC   C3B30254  18.834  18.548   5.186
 2723POPC   C4B30255  18.837  18.500   5.682
 2724POPC   NC330256  15.833  25.141   3.517
 2724POPC   PO430257  15.473  25.036   3.502
 2724POPC   GL130258  15.360  25.152   3.895
 2724POPC   GL230259  15.691  25.280   3.956
 2724POPC   C1A30260  15.285  25.125   4.318
 2724POPC   D2A30261  15.236  25.062   4.797
 2724POPC   C3A30262  15.444  25.240   5.183
 2724POPC   C4A30263  15.596  25.309   5.653
 2724POPC   C1B30264  15.661  25.400   4.286
 2724POPC   C2B30265  15.621  25.483   4.691
 2724POPC   C3B30266  15.936  25.464   5.104
 2724POPC   C4B30267  16.359  25.626   5.384
 2725POPC   NC330268   9.758  17.891   3.085
 2725POPC   PO430269   9.763  18.204   3.337
 2725POPC   GL130270   9.530  18.322   3.596
 2725POPC   GL230271   9.533  18.618   3.555
 2725POPC   C1A30272   9.342  18.157   3.916
 2725POPC   D2A30273   9.251  18.017   4.344
 2725POPC   C3A30274   9.457  17.910   4.733
 2725POPC   C4A30275   9.545  18.007   5.249
 2725POPC   C1B30276   9.484  18.726   3.890
 2725POPC   C2B30277   9.447  18.968   4.224
 2725POPC   C3B30278   9.276  18.893   4.673
 2725POPC   C4B30279   9.195  19.155   5.063
 2726POPC   NC330280  11.007  31.289   2.921
 2726POPC   PO430281  10.700  31.078   3.123
 2726POPC   GL130282  10.589  31.035   3.463
 2726POPC   GL230283  10.429  30.753   3.505
 2726POPC   C1A30284  10.630  31.081   3.914
 2726POPC   D2A30285  10.664  30.918   4.431
 2726POPC   C3A30286  10.775  30.725   4.819
 2726POPC   C4A30287  11.184  30.742   5.135
 2726POPC   C1B30288  10.352  30.656   3.833
 2726POPC   C2B30289  10.300  30.699   4.215
 2726POPC   C3B30290  10.252  30.799   4.679
 2726POPC   C4B30291  10.052  31.070   5.039
 2727POPC   NC330292  12.267  14.713   3.239
 2727POPC   PO430293  11.885  14.665   3.119
 2727POPC   GL130294  11.824  14.294   3.385
 2727POPC   GL230295  12.128  14.334   3.471
 2727POPC   C1A30296  11.629  14.352   3.744
 2727POPC   D2A30297  11.405  14.517   4.152
 2727POPC   C3A30298  11.348  14.812   4.453
 2727POPC   C4A30299  11.237  15.151   4.723
 2727POPC   C1B30300  12.071  14.219   3.829
 2727POPC   C2B30301  11.940  14.382   4.193
 2727POPC   C3B30302  11.745  14.557   4.585
 2727POPC   C4B30303  11.565  14.766   4.987
 2728POPC   NC330304  29.272  12.795   3.948
 2728POPC   PO430305  28.981  12.555   3.780
 2728POPC   GL130306  28.841  12.503   4.066
 2728POPC   GL230307  29.118  12.385   4.206
 2728POPC   C1A30308  28.563  12.663   4.393
 2728POPC   D2A30309  28.113  12.736   4.725
 2728POPC   C3A30310  27.717  12.637   4.950
 2728POPC   C4A30311  27.418  12.416   5.244
 2728POPC   C1B30312  29.051  12.489   4.563
 2728POPC   C2B30313  28.788  12.569   4.883
 2728POPC   C3B30314  28.852  12.782   5.320
 2728POPC   C4B30315  29.045  12.784   5.783
 2729POPC   NC330316  23.732  14.498   3.723
 2729POPC   PO430317  23.372  14.490   3.810
 2729POPC   GL130318  23.384  14.469   4.169
 2729POPC   GL230319  23.267  14.250   4.231
 2729POPC   C1A30320  23.486  14.629   4.581
 2729POPC   D2A30321  23.319  14.552   5.095
 2729POPC   C3A30322  22.826  14.592   5.012
 2729POPC   C4A30323  22.567  14.826   4.721
 2729POPC   C1B30324  23.283  14.232   4.587
 2729POPC   C2B30325  23.609  14.119   4.830
 2729POPC   C3B30326  23.902  13.992   5.202
 2729POPC   C4B30327  24.174  13.832   5.551
 2730POPC   NC330328  34.671   7.168   3.608
 2730POPC   PO430329  34.703   7.492   3.345
 2730POPC   GL130330  34.386   7.799   3.446
 2730POPC   GL230331  34.595   7.862   3.716
 2730POPC   C1A30332  34.064   7.967   3.760
 2730POPC   D2A30333  34.055   8.007   4.281
 2730POPC   C3A30334  34.080   7.939   4.784
 2730POPC   C4A30335  33.864   7.875   5.246
 2730POPC   C1B30336  34.443   7.828   4.078
 2730POPC   C2B30337  34.505   7.796   4.503
 2730POPC   C3B30338  34.478   7.643   4.909
 2730POPC   C4B30339  34.639   7.700   5.416
 2731POPC   NC330340  27.721  33.762   3.012
 2731POPC   PO430341  27.874  34.105   3.132
 2731POPC   GL130342  27.796  34.022   3.479
 2731POPC   GL230343  27.931  34.043   3.599
 2731POPC   C1A30344  27.440  33.975   3.607
 2731POPC   D2A30345  27.150  33.658   3.727
 2731POPC   C3A30346  26.846  33.908   3.967
 2731POPC   C4A30347  26.662  34.195   4.266
 2731POPC   C1B30348  27.747  34.299   3.842
 2731POPC   C2B30349  27.443  34.266   4.072
 2731POPC   C3B30350  27.197  34.101   4.479
 2731POPC   C4B30351  26.817  34.173   4.818
 2732POPC   NC330352   4.169  26.960   3.521
 2732POPC   PO430353   4.063  27.346   3.565
 2732POPC   GL130354   3.988  27.626   3.854
 2732POPC   GL230355   3.891  27.505   3.997
 2732POPC   C1A30356   4.088  28.063   4.024
 2732POPC   D2A30357   4.313  28.398   4.327
 2732POPC   C3A30358   4.469  28.405   4.767
 2732POPC   C4A30359   4.546  28.218   5.169
 2732POPC   C1B30360   4.028  27.565   4.332
 2732POPC   C2B30361   3.902  27.603   4.687
 2732POPC   C3B30362   3.981  27.665   5.130
 2732POPC   C4B30363   4.091  27.502   5.567
 2733POPC   NC330364  11.645   7.512   2.896
 2733POPC   PO430365  11.633   7.770   3.160
 2733POPC   GL130366  11.706   8.039   3.510
 2733POPC   GL230367  11.851   7.866   3.625
 2733POPC   C1A30368  11.546   8.224   3.894
 2733POPC   D2A30369  11.326   8.218   4.365
 2733POPC   C3A30370  11.481   8.065   4.771
 2733POPC   C4A30371  11.735   7.864   5.164
 2733POPC   C1B30372  11.653   7.771   3.912
 2733POPC   C2B30373  11.292   7.829   4.043
 2733POPC   C3B30374  10.920   7.936   4.221
 2733POPC   C4B30375  10.483   7.887   4.409
 2734POPC   NC330376  29.435  15.921   3.202
 2734POPC   PO430377  29.269  15.537   3.273
 2734POPC   GL130378  29.269  15.384   3.631
 2734POPC   GL230379  29.014  15.438   3.679
 2734POPC   C1A30380  29.331  15.445   4.024
 2734POPC   D2A30381  29.402  15.577   4.527
 2734POPC   C3A30382  29.410  16.032   4.733
 2734POPC   C4A30383  29.025  16.055   5.065
 2734POPC   C1B30384  28.848  15.434   4.008
 2734POPC   C2B30385  28.887  15.522   4.382
 2734POPC   C3B30386  28.912  15.597   4.885
 2734POPC   C4B30387  29.417  15.624   4.997
 2735POPC   NC330388  21.061  32.578   3.508
 2735POPC   PO430389  21.415  32.747   3.564
 2735POPC   GL130390  21.597  32.757   4.001
 2735POPC   GL230391  21.567  33.082   4.027
 2735POPC   C1A30392  21.757  32.422   4.278
 2735POPC   D2A30393  22.062  32.337   4.718
 2735POPC   C3A30394  21.789  32.013   4.917
 2735POPC   C4A30395  21.448  31.780   5.183
 2735POPC   C1B30396  21.518  33.138   4.400
 2735POPC   C2B30397  21.453  33.345   4.717
 2735POPC   C3B30398  21.499  33.355   5.186
 2735POPC   C4B30399  21.177  33.436   5.605
 2736POPC   NC330400  18.701  19.888   3.643
 2736POPC   PO430401  18.912  19.600   3.701
 2736POPC   GL130402  19.048  19.483   4.151
 2736POPC   GL230403  19.002  19.781   4.115
 2736POPC   C1A30404  19.179  19.437   4.534
 2736POPC   D2A30405  19.141  19.399   4.964
 2736POPC   C3A30406  19.289  19.531   5.368
 2736POPC   C4A30407  19.364  19.887   5.645
 2736POPC   C1B30408  18.973  19.860   4.421
 2736POPC   C2B30409  19.152  19.967   4.781
 2736POPC   C3B30410  19.554  19.852   5.135
 2736POPC   C4B30411  19.845  19.885   5.459
 2737POPC   NC330412  12.955   8.734   2.708
 2737POPC   PO430413  12.607   8.805   2.889
 2737POPC   GL130414  12.577   8.842   3.287
 2737POPC   GL230415  12.390   9.114   3.211
 2737POPC   C1A30416  12.293   8.684   3.594
 2737POPC   D2A30417  12.157   8.606   4.018
 2737POPC   C3A30418  12.129   8.939   4.374
 2737POPC   C4A30419  12.481   9.027   4.701
 2737POPC   C1B30420  12.079   8.998   3.343
 2737POPC   C2B30421  11.947   9.086   3.738
 2737POPC   C3B30422  11.735   9.184   4.190
 2737POPC   C4B30423  11.826   9.191   4.662
 2738POPC   NC330424  33.729  18.531   3.565
 2738POPC   PO430425  33.699  18.761   3.905
 2738POPC   GL130426  33.840  19.099   4.105
 2738POPC   GL230427  34.015  18.947   4.241
 2738POPC   C1A30428  33.805  19.439   4.398
 2738POPC   D2A30429  34.023  19.636   4.834
 2738POPC   C3A30430  33.998  19.869   5.260
 2738POPC   C4A30431  34.014  19.735   5.803
 2738POPC   C1B30432  33.900  18.878   4.634
 2738POPC   C2B30433  33.780  18.841   5.057
 2738POPC   C3B30434  33.631  18.657   5.487
 2738POPC   C4B30435  33.459  18.434   5.870
 2739POPC   NC330436  13.683  13.325   3.050
 2739POPC   PO430437  13.776  13.631   3.252
 2739POPC   GL130438  13.672  13.873   3.586
 2739POPC   GL230439  13.918  13.968   3.604
 2739POPC   C1A30440  13.454  13.894   3.957
 2739POPC   D2A30441  13.318  13.873   4.461
 2739POPC   C3A30442  13.269  13.420   4.610
 2739POPC   C4A30443  12.997  13.341   4.944
 2739POPC   C1B30444  14.007  13.839   3.934
 2739POPC   C2B30445  13.894  13.620   4.259
 2739POPC   C3B30446  14.141  13.488   4.600
 2739POPC   C4B30447  14.467  13.375   4.951
 2740POPC   NC330448  28.999   3.514   3.716
 2740POPC   PO430449  28.695   3.332   3.650
 2740POPC   GL130450  28.656   3.139   3.970
 2740POPC   GL230451  28.902   3.075   4.009
 2740POPC   C1A30452  28.206   3.108   4.127
 2740POPC   D2A30453  27.988   3.055   4.601
 2740POPC   C3A30454  27.576   3.000   4.545
 2740POPC   C4A30455  27.193   2.737   4.654
 2740POPC   C1B30456  28.868   2.893   4.318
 2740POPC   C2B30457  28.911   2.915   4.740
 2740POPC   C3B30458  28.870   3.074   5.179
 2740POPC   C4B30459  28.867   3.297   5.610
 2741POPC   NC330460   9.158   4.317   3.407
 2741POPC   PO430461   9.215   4.064   3.131
 2741POPC   GL130462   9.219   3.633   3.244
 2741POPC   GL230463   9.128   3.693   3.506
 2741POPC   C1A30464   9.632   3.343   3.276
 2741POPC   D2A30465  10.028   2.941   3.343
 2741POPC   C3A30466  10.495   2.778   3.470
 2741POPC   C4A30467  10.984   2.542   3.429
 2741POPC   C1B30468   9.201   4.005   3.729
 2741POPC   C2B30469   9.559   4.248   3.788
 2741POPC   C3B30470   9.857   4.403   4.172
 2741POPC   C4B30471   9.859   4.583   4.610
 2742POPC   NC330472  32.603  23.299   3.338
 2742POPC   PO430473  32.253  23.318   3.444
 2742POPC   GL130474  32.085  23.020   3.722
 2742POPC   GL230475  32.259  23.017   3.933
 2742POPC   C1A30476  31.743  22.805   3.765
 2742POPC   D2A30477  31.655  22.418   4.004
 2742POPC   C3A30478  31.903  22.418   4.354
 2742POPC   C4A30479  31.781  22.504   4.855
 2742POPC   C1B30480  32.265  23.273   4.148
 2742POPC   C2B30481  32.204  23.306   4.551
 2742POPC   C3B30482  32.001  23.425   4.962
 2742POPC   C4B30483  31.833  23.601   5.381
 2743POPC   NC330484  12.890  17.723   3.387
 2743POPC   PO430485  13.294  17.614   3.445
 2743POPC   GL130486  13.287  17.802   3.803
 2743POPC   GL230487  13.283  18.070   3.655
 2743POPC   C1A30488  13.043  17.850   4.133
 2743POPC   D2A30489  12.682  17.994   4.503
 2743POPC   C3A30490  12.763  17.906   4.965
 2743POPC   C4A30491  12.813  17.632   5.433
 2743POPC   C1B30492  13.144  18.262   3.942
 2743POPC   C2B30493  13.033  18.303   4.330
 2743POPC   C3B30494  13.069  18.305   4.832
 2743POPC   C4B30495  13.071  18.116   5.289
 2744POPC   NC330496   1.234  19.758   3.349
 2744POPC   PO430497   1.222  19.981   3.682
 2744POPC   GL130498   1.018  20.061   4.088
 2744POPC   GL230499   1.077  20.352   4.020
 2744POPC   C1A30500   0.900  20.005   4.506
 2744POPC   D2A30501   0.783  20.121   4.997
 2744POPC   C3A30502   0.748  20.344   5.438
 2744POPC   C4A30503   0.409  20.348   5.731
 2744POPC   C1B30504   1.206  20.573   4.278
 2744POPC   C2B30505   1.201  20.699   4.660
 2744POPC   C3B30506   1.071  21.047   4.970
 2744POPC   C4B30507   0.877  21.374   5.317
 2745POPC   NC330508  19.640  18.330   3.257
 2745POPC   PO430509  19.970  18.456   3.445
 2745POPC   GL130510  19.952  18.304   3.828
 2745POPC   GL230511  19.916  18.080   3.839
 2745POPC   C1A30512  19.730  18.499   4.179
 2745POPC   D2A30513  19.689  18.752   4.640
 2745POPC   C3A30514  19.653  18.639   5.059
 2745POPC   C4A30515  19.743  18.527   5.554
 2745POPC   C1B30516  19.684  17.901   4.069
 2745POPC   C2B30517  19.393  17.779   4.304
 2745POPC   C3B30518  19.274  17.847   4.789
 2745POPC   C4B30519  19.155  17.868   5.264
 2746POPC   NC330520  32.362   3.926   3.143
 2746POPC   PO430521  32.148   3.665   2.983
 2746POPC   GL130522  32.117   3.600   3.422
 2746POPC   GL230523  32.367   3.562   3.474
 2746POPC   C1A30524  31.806   3.683   3.760
 2746POPC   D2A30525  31.740   3.840   4.096
 2746POPC   C3A30526  31.760   3.744   4.582
 2746POPC   C4A30527  31.414   3.661   4.947
 2746POPC   C1B30528  32.499   3.553   3.815
 2746POPC   C2B30529  32.602   3.546   4.214
 2746POPC   C3B30530  32.671   3.543   4.670
 2746POPC   C4B30531  32.906   3.572   5.100
 2747POPC   NC330532   2.791  29.135   3.314
 2747POPC   PO430533   2.417  29.005   3.313
 2747POPC   GL130534   2.223  29.208   3.631
 2747POPC   GL230535   2.299  28.957   3.775
 2747POPC   C1A30536   2.363  29.415   4.047
 2747POPC   D2A30537   2.568  29.671   4.435
 2747POPC   C3A30538   2.611  29.642   4.949
 2747POPC   C4A30539   2.625  29.236   5.170
 2747POPC   C1B30540   2.590  28.889   4.034
 2747POPC   C2B30541   2.758  29.175   4.273
 2747POPC   C3B30542   2.974  29.459   4.651
 2747POPC   C4B30543   3.174  29.709   5.015
 2748POPC   NC330544   6.398  24.947   3.304
 2748POPC   PO430545   6.638  25.209   3.503
 2748POPC   GL130546   6.435  25.064   3.836
 2748POPC   GL230547   6.217  25.126   3.707
 2748POPC   C1A30548   6.428  24.806   4.203
 2748POPC   D2A30549   6.376  24.452   4.581
 2748POPC   C3A30550   6.438  24.554   5.029
 2748POPC   C4A30551   6.279  24.666   5.492
 2748POPC   C1B30552   6.033  25.259   4.025
 2748POPC   C2B30553   5.886  25.403   4.344
 2748POPC   C3B30554   5.628  25.240   4.720
 2748POPC   C4B30555   5.393  25.084   5.085
 2749POPC   NC330556   8.919  26.905   2.256
 2749POPC   PO430557   8.761  26.673   2.562
 2749POPC   GL130558   8.685  26.501   2.946
 2749POPC   GL230559   8.807  26.794   3.062
 2749POPC   C1A30560   8.860  26.234   3.202
 2749POPC   D2A30561   9.121  25.873   3.410
 2749POPC   C3A30562   9.267  25.635   3.743
 2749POPC   C4A30563   9.478  25.198   3.874
 2749POPC   C1B30564   8.828  26.665   3.384
 2749POPC   C2B30565   9.010  26.451   3.699
 2749POPC   C3B30566   9.342  26.495   4.086
 2749POPC   C4B30567   9.738  26.581   4.290
 2750POPC   NC330568  26.704  14.600   3.169
 2750POPC   PO430569  26.498  14.857   3.367
 2750POPC   GL130570  26.548  14.866   3.801
 2750POPC   GL230571  26.500  15.212   3.771
 2750POPC   C1A30572  26.448  14.507   4.073
 2750POPC   D2A30573  26.492  14.390   4.566
 2750POPC   C3A30574  26.627  14.226   4.981
 2750POPC   C4A30575  26.604  14.380   5.429
 2750POPC   C1B30576  26.585  15.269   4.137
 2750POPC   C2B30577  26.724  15.231   4.557
 2750POPC   C3B30578  26.826  15.227   4.991
 2750POPC   C4B30579  26.942  15.143   5.430
 2751POPC   NC330580   9.220  13.135   3.541
 2751POPC   PO430581   9.611  13.134   3.535
 2751POPC   GL130582   9.515  12.904   4.003
 2751POPC   GL230583   9.622  12.691   3.801
 2751POPC   C1A30584   9.661  12.792   4.396
 2751POPC   D2A30585   9.751  12.743   4.830
 2751POPC   C3A30586   9.563  12.998   5.190
 2751POPC   C4A30587   9.128  13.166   5.091
 2751POPC   C1B30588   9.530  12.310   3.905
 2751POPC   C2B30589   9.407  12.078   4.188
 2751POPC   C3B30590   9.349  11.829   4.522
 2751POPC   C4B30591   9.289  11.678   4.982
 2752POPC   NC330592  21.186  31.372   3.359
 2752POPC   PO430593  21.291  31.013   3.517
 2752POPC   GL130594  21.102  30.919   3.993
 2752POPC   GL230595  21.348  30.857   4.000
 2752POPC   C1A30596  21.019  31.051   4.375
 2752POPC   D2A30597  21.292  31.390   4.662
 2752POPC   C3A30598  21.204  31.850   4.686
 2752POPC   C4A30599  21.026  31.965   5.182
 2752POPC   C1B30600  21.494  30.960   4.348
 2752POPC   C2B30601  21.745  30.769   4.652
 2752POPC   C3B30602  22.074  30.570   4.852
 2752POPC   C4B30603  22.443  30.256   4.922
 2753POPC   NC330604  15.269  10.682   3.592
 2753POPC   PO430605  15.633  10.566   3.710
 2753POPC   GL130606  15.767  10.682   4.129
 2753POPC   GL230607  15.451  10.637   4.178
 2753POPC   C1A30608  16.133  10.802   4.417
 2753POPC   D2A30609  16.014  11.147   4.777
 2753POPC   C3A30610  15.931  11.135   5.259
 2753POPC   C4A30611  15.757  11.468   5.553
 2753POPC   C1B30612  15.262  10.441   4.391
 2753POPC   C2B30613  15.256  10.544   4.793
 2753POPC   C3B30614  15.167  10.750   5.218
 2753POPC   C4B30615  14.746  10.691   5.528
 2754POPC   NC330616  31.802   8.681   3.730
 2754POPC   PO430617  31.480   8.429   3.661
 2754POPC   GL130618  31.349   8.149   3.914
 2754POPC   GL230619  31.017   8.254   3.920
 2754POPC   C1A30620  31.354   8.104   4.324
 2754POPC   D2A30621  31.237   7.829   4.675
 2754POPC   C3A30622  31.257   7.907   5.116
 2754POPC   C4A30623  31.006   7.856   5.558
 2754POPC   C1B30624  31.015   8.491   4.215
 2754POPC   C2B30625  31.128   8.600   4.601
 2754POPC   C3B30626  31.338   8.389   4.957
 2754POPC   C4B30627  31.720   8.081   5.102
 2755POPC   NC330628  24.558  35.632   3.227
 2755POPC   PO430629  24.796  35.622   3.553
 2755POPC   GL130630  24.904  35.810   3.890
 2755POPC   GL230631  24.601  35.851   3.919
 2755POPC   C1A30632  25.124  35.758   4.312
 2755POPC   D2A30633  25.373  35.487   4.638
 2755POPC   C3A30634  25.572  35.490   5.045
 2755POPC   C4A30635  25.552  35.353   5.521
 2755POPC   C1B30636  24.498  35.702   4.238
 2755POPC   C2B30637  24.296  35.429   4.468
 2755POPC   C3B30638  24.266  35.215   4.873
 2755POPC   C4B30639  23.969  35.468   5.273
 2756POPC   NC330640  21.491  17.125   3.750
 2756POPC   PO430641  21.838  17.251   3.583
 2756POPC   GL130642  22.002  17.274   3.979
 2756POPC   GL230643  21.807  17.146   4.094
 2756POPC   C1A30644  22.284  17.285   4.327
 2756POPC   D2A30645  22.419  17.410   4.832
 2756POPC   C3A30646  22.155  17.395   5.199
 2756POPC   C4A30647  21.851  17.712   5.385
 2756POPC   C1B30648  21.883  17.063   4.409
 2756POPC   C2B30649  21.961  17.079   4.819
 2756POPC   C3B30650  22.179  16.877   5.207
 2756POPC   C4B30651  22.425  16.650   5.530
 2757POPC   NC330652   8.566   6.482   3.040
 2757POPC   PO430653   8.576   6.764   3.273
 2757POPC   GL130654   8.765   6.865   3.613
 2757POPC   GL230655   8.644   7.097   3.640
 2757POPC   C1A30656   8.845   6.664   3.980
 2757POPC   D2A30657   9.005   6.296   4.251
 2757POPC   C3A30658   9.332   6.217   4.640
 2757POPC   C4A30659   9.197   5.886   5.065
 2757POPC   C1B30660   8.577   6.999   3.944
 2757POPC   C2B30661   8.674   7.064   4.311
 2757POPC   C3B30662   8.790   6.917   4.714
 2757POPC   C4B30663   8.881   6.720   5.137
 2758POPC   NC330664  23.599  25.319   3.446
 2758POPC   PO430665  23.880  25.292   3.696
 2758POPC   GL130666  23.741  25.533   4.063
 2758POPC   GL230667  23.848  25.256   4.192
 2758POPC   C1A30668  23.612  25.568   4.557
 2758POPC   D2A30669  23.496  25.566   5.054
 2758POPC   C3A30670  23.643  25.400   5.472
 2758POPC   C4A30671  23.583  24.965   5.626
 2758POPC   C1B30672  23.945  25.287   4.566
 2758POPC   C2B30673  24.098  25.431   4.886
 2758POPC   C3B30674  24.400  25.361   5.233
 2758POPC   C4B30675  24.635  25.312   5.754
 2759POPC   NC330676  20.983   3.333   3.009
 2759POPC   PO430677  20.918   3.548   3.345
 2759POPC   GL130678  20.775   3.421   3.761
 2759POPC   GL230679  20.680   3.669   3.782
 2759POPC   C1A30680  21.069   3.239   4.088
 2759POPC   D2A30681  21.291   3.115   4.511
 2759POPC   C3A30682  21.640   3.093   4.774
 2759POPC   C4A30683  21.708   3.508   5.082
 2759POPC   C1B30684  20.767   3.781   4.122
 2759POPC   C2B30685  20.875   3.742   4.562
 2759POPC   C3B30686  20.917   3.789   5.058
 2759POPC   C4B30687  20.830   3.967   5.471
 2760POPC   NC330688   3.248   6.821   3.574
 2760POPC   PO430689   3.097   7.131   3.405
 2760POPC   GL130690   2.757   7.332   3.603
 2760POPC   GL230691   2.891   7.137   3.803
 2760POPC   C1A30692   2.628   7.541   3.951
 2760POPC   D2A30693   2.440   7.764   4.392
 2760POPC   C3A30694   2.483   7.734   4.865
 2760POPC   C4A30695   2.309   7.760   5.273
 2760POPC   C1B30696   2.685   6.997   4.069
 2760POPC   C2B30697   2.620   6.790   4.409
 2760POPC   C3B30698   2.607   6.596   4.873
 2760POPC   C4B30699   2.808   6.368   5.241
 2761POPC   NC330700  24.161   6.678   3.267
 2761POPC   PO430701  24.299   6.373   3.365
 2761POPC   GL130702  24.210   6.330   3.689
 2761POPC   GL230703  23.887   6.453   3.691
 2761POPC   C1A30704  24.414   6.344   4.043
 2761POPC   D2A30705  24.854   6.206   4.257
 2761POPC   C3A30706  24.978   6.303   4.737
 2761POPC   C4A30707  24.866   6.349   5.207
 2761POPC   C1B30708  24.031   6.603   4.025
 2761POPC   C2B30709  24.098   6.564   4.433
 2761POPC   C3B30710  24.103   6.660   4.891
 2761POPC   C4B30711  23.930   6.623   5.363
 2762POPC   NC330712  32.157  28.606   3.144
 2762POPC   PO430713  32.036  28.273   3.345
 2762POPC   GL130714  31.953  28.352   3.791
 2762POPC   GL230715  31.744  28.564   3.743
 2762POPC   C1A30716  32.028  28.203   4.275
 2762POPC   D2A30717  32.257  27.820   4.375
 2762POPC   C3A30718  32.444  27.804   4.851
 2762POPC   C4A30719  32.782  27.899   5.248
 2762POPC   C1B30720  31.811  28.725   4.088
 2762POPC   C2B30721  31.546  29.046   4.234
 2762POPC   C3B30722  31.188  28.988   4.514
 2762POPC   C4B30723  31.000  28.992   4.877
 2763POPC   NC330724   6.329  12.128   3.011
 2763POPC   PO430725   6.724  11.993   3.022
 2763POPC   GL130726   6.979  11.968   3.375
 2763POPC   GL230727   6.748  11.808   3.500
 2763POPC   C1A30728   7.334  12.100   3.555
 2763POPC   D2A30729   7.624  12.252   3.919
 2763POPC   C3A30730   7.669  12.269   4.408
 2763POPC   C4A30731   8.077  12.060   4.647
 2763POPC   C1B30732   6.887  11.978   3.775
 2763POPC   C2B30733   7.154  12.222   4.036
 2763POPC   C3B30734   7.215  12.170   4.527
 2763POPC   C4B30735   7.222  12.038   4.944
 2764POPC   NC330736  12.541  16.846   3.220
 2764POPC   PO430737  12.595  16.455   3.092
 2764POPC   GL130738  12.590  16.269   3.422
 2764POPC   GL230739  12.616  16.469   3.626
 2764POPC   C1A30740  12.297  16.010   3.667
 2764POPC   D2A30741  12.523  15.807   4.076
 2764POPC   C3A30742  12.549  15.627   4.560
 2764POPC   C4A30743  12.288  15.460   4.953
 2764POPC   C1B30744  12.422  16.474   3.914
 2764POPC   C2B30745  12.369  16.552   4.322
 2764POPC   C3B30746  12.477  16.569   4.764
 2764POPC   C4B30747  12.491  16.637   5.259
 2765POPC   NC330748  11.606  19.449   3.061
 2765POPC   PO430749  11.497  19.836   3.047
 2765POPC   GL130750  11.535  19.855   3.489
 2765POPC   GL230751  11.805  19.695   3.392
 2765POPC   C1A30752  11.454  20.233   3.709
 2765POPC   D2A30753  11.161  20.414   4.068
 2765POPC   C3A30754  10.882  20.650   4.342
 2765POPC   C4A30755  10.731  20.907   4.713
 2765POPC   C1B30756  11.936  19.383   3.605
 2765POPC   C2B30757  12.272  19.287   3.806
 2765POPC   C3B30758  12.404  18.832   3.882
 2765POPC   C4B30759  12.810  18.650   4.079
 2766POPC   NC330760  17.073  29.297   2.872
 2766POPC   PO430761  17.190  29.572   3.118
 2766POPC   GL130762  17.040  29.719   3.493
 2766POPC   GL230763  16.977  29.511   3.642
 2766POPC   C1A30764  16.793  29.878   3.799
 2766POPC   D2A30765  16.638  29.945   4.317
 2766POPC   C3A30766  16.688  30.067   4.757
 2766POPC   C4A30767  17.050  30.195   5.143
 2766POPC   C1B30768  16.861  29.488   4.033
 2766POPC   C2B30769  16.759  29.377   4.392
 2766POPC   C3B30770  16.741  29.375   4.853
 2766POPC   C4B30771  16.966  29.299   5.354
 2767POPC   NC330772  27.103  13.713   3.071
 2767POPC   PO430773  27.355  13.810   3.325
 2767POPC   GL130774  27.430  13.633   3.675
 2767POPC   GL230775  27.580  13.751   3.854
 2767POPC   C1A30776  27.101  13.687   4.017
 2767POPC   D2A30777  27.077  13.690   4.480
 2767POPC   C3A30778  27.039  13.491   4.890
 2767POPC   C4A30779  27.092  13.465   5.371
 2767POPC   C1B30780  27.618  13.737   4.267
 2767POPC   C2B30781  27.522  13.723   4.663
 2767POPC   C3B30782  27.473  13.814   5.081
 2767POPC   C4B30783  27.451  13.810   5.530
 2768POPC   NC330784  24.864   3.820   2.977
 2768POPC   PO430785  24.996   3.687   3.287
 2768POPC   GL130786  25.013   3.765   3.706
 2768POPC   GL230787  24.823   3.948   3.671
 2768POPC   C1A30788  24.902   3.615   4.074
 2768POPC   D2A30789  24.666   3.723   4.443
 2768POPC   C3A30790  24.775   3.554   4.819
 2768POPC   C4A30791  25.008   3.427   5.216
 2768POPC   C1B30792  24.969   4.108   3.963
 2768POPC   C2B30793  24.951   4.139   4.393
 2768POPC   C3B30794  24.806   4.207   4.836
 2768POPC   C4B30795  24.433   3.890   4.865
 2769POPC   NC330796   7.835  29.130   3.180
 2769POPC   PO430797   8.208  29.262   3.091
 2769POPC   GL130798   8.442  29.141   3.402
 2769POPC   GL230799   8.320  28.921   3.461
 2769POPC   C1A30800   8.705  29.449   3.667
 2769POPC   D2A30801   8.904  29.812   3.585
 2769POPC   C3A30802   8.965  30.062   3.946
 2769POPC   C4A30803   9.020  30.107   4.348
 2769POPC   C1B30804   8.463  28.761   3.772
 2769POPC   C2B30805   8.404  28.654   4.193
 2769POPC   C3B30806   8.155  28.673   4.594
 2769POPC   C4B30807   7.867  28.652   4.975
 2770POPC   NC330808  34.318  16.133   3.902
 2770POPC   PO430809  34.245  16.535   3.994
 2770POPC   GL130810  34.510  16.728   4.123
 2770POPC   GL230811  34.421  16.910   4.301
 2770POPC   C1A30812  34.890  16.757   4.386
 2770POPC   D2A30813  35.147  16.932   4.744
 2770POPC   C3A30814  35.016  16.994   5.174
 2770POPC   C4A30815  35.132  16.774   5.550
 2770POPC   C1B30816  34.516  16.854   4.632
 2770POPC   C2B30817  34.665  16.644   4.892
 2770POPC   C3B30818  34.757  16.513   5.373
 2770POPC   C4B30819  34.644  16.731   5.803
 2771POPC   NC330820   1.748  32.887   3.768
 2771POPC   PO430821   1.367  32.961   3.699
 2771POPC   GL130822   1.109  32.893   4.022
 2771POPC   GL230823   1.224  32.603   4.094
 2771POPC   C1A30824   0.925  33.033   4.376
 2771POPC   D2A30825   0.700  33.231   4.726
 2771POPC   C3A30826   0.682  33.431   5.117
 2771POPC   C4A30827   0.810  33.337   5.580
 2771POPC   C1B30828   1.275  32.619   4.478
 2771POPC   C2B30829   1.330  32.470   4.850
 2771POPC   C3B30830   1.667  32.527   5.233
 2771POPC   C4B30831   2.139  32.585   5.382
 2772POPC   NC330832  23.306   5.402   3.685
 2772POPC   PO430833  22.922   5.362   3.809
 2772POPC   GL130834  22.643   5.510   4.070
 2772POPC   GL230835  22.573   5.212   4.157
 2772POPC   C1A30836  22.427   5.840   4.307
 2772POPC   D2A30837  22.443   6.024   4.751
 2772POPC   C3A30838  22.530   5.812   5.146
 2772POPC   C4A30839  22.277   5.611   5.543
 2772POPC   C1B30840  22.459   5.190   4.533
 2772POPC   C2B30841  22.192   5.039   4.799
 2772POPC   C3B30842  21.821   5.000   4.994
 2772POPC   C4B30843  21.457   4.800   5.255
 2773POPC   NC330844  29.884  13.891   3.145
 2773POPC   PO430845  29.754  14.151   3.445
 2773POPC   GL130846  29.703  14.188   3.848
 2773POPC   GL230847  29.982  14.174   3.920
 2773POPC   C1A30848  29.346  14.040   4.081
 2773POPC   D2A30849  29.260  13.874   4.542
 2773POPC   C3A30850  29.664  13.755   4.737
 2773POPC   C4A30851  29.600  13.839   5.175
 2773POPC   C1B30852  30.084  13.986   4.218
 2773POPC   C2B30853  30.135  13.980   4.649
 2773POPC   C3B30854  30.025  14.006   5.129
 2773POPC   C4B30855  30.037  13.877   5.577
 2774POPC   NC330856  11.217  24.441   2.410
 2774POPC   PO430857  11.321  24.459   2.791
 2774POPC   GL130858  11.031  24.464   3.096
 2774POPC   GL230859  10.803  24.300   3.039
 2774POPC   C1A30860  10.761  24.792   3.276
 2774POPC   D2A30861  10.336  24.833   3.387
 2774POPC   C3A30862  10.079  24.664   3.653
 2774POPC   C4A30863   9.757  24.321   3.706
 2774POPC   C1B30864  10.642  24.341   3.347
 2774POPC   C2B30865  10.524  24.498   3.744
 2774POPC   C3B30866  10.431  24.661   4.208
 2774POPC   C4B30867  10.493  24.720   4.742
 2775POPC   NC330868  14.228  32.760   3.507
 2775POPC   PO430869  14.523  32.990   3.594
 2775POPC   GL130870  14.791  33.128   3.886
 2775POPC   GL230871  14.944  32.824   3.855
 2775POPC   C1A30872  14.678  33.242   4.325
 2775POPC   D2A30873  14.924  33.217   4.780
 2775POPC   C3A30874  15.339  33.349   4.964
 2775POPC   C4A30875  15.287  33.735   5.307
 2775POPC   C1B30876  15.090  32.779   4.201
 2775POPC   C2B30877  15.137  32.746   4.605
 2775POPC   C3B30878  15.239  32.441   5.013
 2775POPC   C4B30879  15.734  32.316   5.111
 2776POPC   NC330880  12.779  31.737   3.394
 2776POPC   PO430881  12.386  31.606   3.573
 2776POPC   GL130882  12.319  31.351   3.882
 2776POPC   GL230883  12.026  31.359   3.828
 2776POPC   C1A30884  12.235  31.398   4.347
 2776POPC   D2A30885  12.261  31.146   4.789
 2776POPC   C3A30886  12.341  31.147   5.291
 2776POPC   C4A30887  12.474  31.553   5.582
 2776POPC   C1B30888  11.768  31.510   4.125
 2776POPC   C2B30889  11.785  31.515   4.565
 2776POPC   C3B30890  11.814  31.520   5.079
 2776POPC   C4B30891  11.899  31.383   5.548
 2777POPC   NC330892  21.187  16.624   3.340
 2777POPC   PO430893  20.840  16.431   3.344
 2777POPC   GL130894  20.619  16.281   3.705
 2777POPC   GL230895  20.753  16.016   3.647
 2777POPC   C1A30896  20.410  16.274   4.055
 2777POPC   D2A30897  20.192  16.003   4.466
 2777POPC   C3A30898  20.358  15.628   4.617
 2777POPC   C4A30899  20.243  15.212   4.797
 2777POPC   C1B30900  20.668  15.908   3.955
 2777POPC   C2B30901  20.513  15.612   4.131
 2777POPC   C3B30902  20.456  15.208   4.340
 2777POPC   C4B30903  20.629  14.937   4.724
 2778POPC   NC330904  17.287   0.335   2.489
 2778POPC   PO430905  17.330   0.300   2.913
 2778POPC   GL130906  16.965   0.230   3.150
 2778POPC   GL230907  17.019   0.394   3.444
 2778POPC   C1A30908  16.801  -0.013   3.415
 2778POPC   D2A30909  16.660  -0.398   3.723
 2778POPC   C3A30910  16.954  -0.732   3.766
 2778POPC   C4A30911  16.979  -1.194   3.611
 2778POPC   C1B30912  17.151   0.195   3.680
 2778POPC   C2B30913  17.480   0.074   3.955
 2778POPC   C3B30914  17.746   0.219   4.308
 2778POPC   C4B30915  17.439   0.481   4.650
 2779POPC   NC330916   2.876  10.278   3.987
 2779POPC   PO430917   2.697   9.940   3.831
 2779POPC   GL130918   2.709   9.936   4.270
 2779POPC   GL230919   2.567  10.160   4.411
 2779POPC   C1A30920   2.958   9.696   4.516
 2779POPC   D2A30921   2.989   9.539   4.988
 2779POPC   C3A30922   3.102   9.177   5.228
 2779POPC   C4A30923   3.042   8.915   5.594
 2779POPC   C1B30924   2.544  10.042   4.742
 2779POPC   C2B30925   2.748   9.967   5.052
 2779POPC   C3B30926   2.798   9.733   5.485
 2779POPC   C4B30927   3.015   9.398   5.811
 2780POPC   NC330928   1.217  13.481   4.031
 2780POPC   PO430929   1.548  13.384   4.148
 2780POPC   GL130930   1.593  13.290   4.514
 2780POPC   GL230931   1.318  13.103   4.471
 2780POPC   C1A30932   1.840  13.066   4.707
 2780POPC   D2A30933   2.019  13.055   5.147
 2780POPC   C3A30934   2.311  13.102   5.498
 2780POPC   C4A30935   2.152  13.223   6.000
 2780POPC   C1B30936   1.235  12.754   4.620
 2780POPC   C2B30937   1.111  12.417   4.868
 2780POPC   C3B30938   1.038  12.281   5.305
 2780POPC   C4B30939   1.222  12.035   5.689
 2781POPC   NC330940   7.996  16.964   2.850
 2781POPC   PO430941   7.899  16.621   3.024
 2781POPC   GL130942   7.925  16.497   3.368
 2781POPC   GL230943   7.606  16.561   3.450
 2781POPC   C1A30944   8.120  16.332   3.657
 2781POPC   D2A30945   8.438  16.097   3.978
 2781POPC   C3A30946   8.472  15.998   4.407
 2781POPC   C4A30947   8.296  15.813   4.848
 2781POPC   C1B30948   7.663  16.294   3.740
 2781POPC   C2B30949   7.651  16.307   4.151
 2781POPC   C3B30950   7.466  16.318   4.620
 2781POPC   C4B30951   7.335  16.558   5.003
 2782POPC   NC330952   6.895  15.433   3.210
 2782POPC   PO430953   6.969  15.287   3.577
 2782POPC   GL130954   7.204  15.322   3.960
 2782POPC   GL230955   7.098  15.610   3.945
 2782POPC   C1A30956   7.463  15.363   4.275
 2782POPC   D2A30957   7.486  15.373   4.765
 2782POPC   C3A30958   7.599  15.777   4.961
 2782POPC   C4A30959   7.817  16.191   5.141
 2782POPC   C1B30960   6.964  15.556   4.254
 2782POPC   C2B30961   7.037  15.282   4.571
 2782POPC   C3B30962   6.944  15.099   4.990
 2782POPC   C4B30963   6.703  15.159   5.414
 2783POPC   NC330964  11.915  18.648   3.323
 2783POPC   PO430965  12.254  18.494   3.394
 2783POPC   GL130966  12.200  18.440   3.799
 2783POPC   GL230967  12.238  18.189   3.706
 2783POPC   C1A30968  12.021  18.661   4.188
 2783POPC   D2A30969  12.135  18.944   4.578
 2783POPC   C3A30970  12.456  19.120   4.783
 2783POPC   C4A30971  12.637  19.534   5.014
 2783POPC   C1B30972  12.219  17.955   3.932
 2783POPC   C2B30973  12.162  17.865   4.339
 2783POPC   C3B30974  12.302  17.873   4.799
 2783POPC   C4B30975  12.437  17.904   5.326
 2784POPC   NC330976   9.444  16.295   3.099
 2784POPC   PO430977   9.369  16.370   3.475
 2784POPC   GL130978   9.327  16.221   3.821
 2784POPC   GL230979   9.039  16.245   3.732
 2784POPC   C1A30980   9.243  16.444   4.167
 2784POPC   D2A30981   8.961  16.638   4.534
 2784POPC   C3A30982   8.767  16.588   4.982
 2784POPC   C4A30983   8.540  16.887   5.356
 2784POPC   C1B30984   8.941  16.166   4.161
 2784POPC   C2B30985   8.903  16.115   4.583
 2784POPC   C3B30986   8.723  16.108   5.048
 2784POPC   C4B30987   8.247  16.079   5.232
 2785POPC   NC330988  35.686  23.848   3.366
 2785POPC   PO430989  35.888  24.095   3.599
 2785POPC   GL130990  35.892  24.013   4.135
 2785POPC   GL230991  35.657  24.159   3.992
 2785POPC   C1A30992  35.935  24.189   4.531
 2785POPC   D2A30993  35.968  24.279   4.984
 2785POPC   C3A30994  35.664  24.452   5.254
 2785POPC   C4A30995  35.243  24.509   5.597
 2785POPC   C1B30996  35.526  24.342   4.313
 2785POPC   C2B30997  35.441  24.393   4.663
 2785POPC   C3B30998  35.175  24.448   5.069
 2785POPC   C4B30999  34.860  24.213   5.343
 2786POPC   NC331000  30.550   1.708   2.794
 2786POPC   PO431001  30.593   1.724   3.217
 2786POPC   GL131002  30.722   1.945   3.566
 2786POPC   GL231003  30.557   1.730   3.689
 2786POPC   C1A31004  30.756   2.194   3.851
 2786POPC   D2A31005  30.637   2.178   4.347
 2786POPC   C3A31006  30.760   2.285   4.769
 2786POPC   C4A31007  30.729   2.477   5.177
 2786POPC   C1B31008  30.479   1.788   4.049
 2786POPC   C2B31009  30.359   1.725   4.445
 2786POPC   C3B31010  30.198   1.507   4.794
 2786POPC   C4B31011  30.088   1.327   5.250
 2787POPC   NC331012  19.487  15.557   3.709
 2787POPC   PO431013  19.286  15.355   3.421
 2787POPC   GL131014  19.251  15.109   3.803
 2787POPC   GL231015  19.190  14.879   3.694
 2787POPC   C1A31016  19.177  15.026   4.234
 2787POPC   D2A31017  19.100  15.116   4.736
 2787POPC   C3A31018  19.239  14.951   5.131
 2787POPC   C4A31019  19.617  14.634   5.155
 2787POPC   C1B31020  19.228  14.608   3.984
 2787POPC   C2B31021  19.037  14.492   4.315
 2787POPC   C3B31022  18.772  14.271   4.665
 2787POPC   C4B31023  18.725  13.788   4.749
 2788POPC   NC331024  26.367  17.960   3.336
 2788POPC   PO431025  26.645  17.668   3.344
 2788POPC   GL131026  26.788  17.726   3.736
 2788POPC   GL231027  26.891  17.375   3.771
 2788POPC   C1A31028  26.934  17.890   4.167
 2788POPC   D2A31029  26.801  17.907   4.654
 2788POPC   C3A31030  26.960  18.128   5.050
 2788POPC   C4A31031  27.403  18.186   5.271
 2788POPC   C1B31032  26.968  17.322   4.131
 2788POPC   C2B31033  27.265  17.346   4.400
 2788POPC   C3B31034  27.549  17.156   4.719
 2788POPC   C4B31035  27.991  17.057   4.923
 2789POPC   NC331036  10.742  13.248   3.833
 2789POPC   PO431037  10.448  12.964   3.844
 2789POPC   GL131038  10.360  13.018   4.213
 2789POPC   GL231039  10.358  12.665   4.231
 2789POPC   C1A31040  10.591  13.276   4.444
 2789POPC   D2A31041  10.583  13.459   4.916
 2789POPC   C3A31042  10.864  13.524   5.313
 2789POPC   C4A31043  11.300  13.341   5.322
 2789POPC   C1B31044  10.376  12.444   4.489
 2789POPC   C2B31045  10.731  12.210   4.571
 2789POPC   C3B31046  10.906  12.174   5.041
 2789POPC   C4B31047  10.954  12.165   5.548
 2790POPC   NC331048   1.028  15.591   3.589
 2790POPC   PO431049   0.838  15.887   3.713
 2790POPC   GL131050   0.761  16.085   4.119
 2790POPC   GL231051   0.940  16.252   4.041
 2790POPC   C1A31052   0.750  15.891   4.477
 2790POPC   D2A31053   0.644  15.826   4.978
 2790POPC   C3A31054   0.968  15.611   5.245
 2790POPC   C4A31055   1.342  15.495   5.559
 2790POPC   C1B31056   0.958  16.440   4.383
 2790POPC   C2B31057   0.836  16.339   4.781
 2790POPC   C3B31058   0.901  16.195   5.238
 2790POPC   C4B31059   0.734  15.887   5.618
 2791POPC   NC331060  20.840  35.150   3.478
 2791POPC   PO431061  20.820  35.455   3.175
 2791POPC   GL131062  20.866  35.718   3.500
 2791POPC   GL231063  20.715  35.931   3.547
 2791POPC   C1A31064  21.118  35.555   3.818
 2791POPC   D2A31065  21.231  35.536   4.251
 2791POPC   C3A31066  20.999  35.671   4.654
 2791POPC   C4A31067  20.936  35.861   5.112
 2791POPC   C1B31068  20.792  36.004   3.923
 2791POPC   C2B31069  20.818  36.021   4.316
 2791POPC   C3B31070  20.689  36.136   4.738
 2791POPC   C4B31071  20.657  36.334   5.221
 2792POPC   NC331072   3.339  10.313   3.499
 2792POPC   PO431073   3.132   9.971   3.593
 2792POPC   GL131074   3.354   9.928   4.032
 2792POPC   GL231075   3.096   9.849   4.091
 2792POPC   C1A31076   3.592  10.181   4.337
 2792POPC   D2A31077   3.490  10.384   4.830
 2792POPC   C3A31078   3.787  10.286   5.182
 2792POPC   C4A31079   3.995  10.332   5.634
 2792POPC   C1B31080   3.102  10.101   4.372
 2792POPC   C2B31081   2.974  10.228   4.725
 2792POPC   C3B31082   3.064  10.542   5.094
 2792POPC   C4B31083   3.132  10.899   5.428
 2793POPC   NC331084   6.894   4.993   3.699
 2793POPC   PO431085   6.656   5.274   3.563
 2793POPC   GL131086   6.632   5.322   3.963
 2793POPC   GL231087   6.929   5.487   3.923
 2793POPC   C1A31088   6.473   5.150   4.353
 2793POPC   D2A31089   6.219   5.060   4.765
 2793POPC   C3A31090   5.949   4.899   5.076
 2793POPC   C4A31091   5.833   4.563   5.347
 2793POPC   C1B31092   6.842   5.648   4.217
 2793POPC   C2B31093   6.744   5.523   4.589
 2793POPC   C3B31094   6.647   5.558   5.065
 2793POPC   C4B31095   6.680   5.343   5.530
 2794POPC   NC331096  34.388  24.895   3.706
 2794POPC   PO431097  34.048  24.661   3.699
 2794POPC   GL131098  33.969  24.420   3.899
 2794POPC   GL231099  33.736  24.498   4.055
 2794POPC   C1A31100  34.084  24.189   4.311
 2794POPC   D2A31101  34.357  24.112   4.686
 2794POPC   C3A31102  34.492  23.925   5.146
 2794POPC   C4A31103  34.648  23.855   5.634
 2794POPC   C1B31104  33.810  24.514   4.403
 2794POPC   C2B31105  33.813  24.301   4.745
 2794POPC   C3B31106  33.991  24.190   5.117
 2794POPC   C4B31107  34.144  24.073   5.531
 2795POPC   NC331108  14.142  26.707   3.082
 2795POPC   PO431109  13.790  26.881   3.108
 2795POPC   GL131110  13.707  27.271   3.312
 2795POPC   GL231111  14.003  27.384   3.346
 2795POPC   C1A31112  13.485  27.406   3.605
 2795POPC   D2A31113  13.207  27.240   4.018
 2795POPC   C3A31114  13.030  27.341   4.474
 2795POPC   C4A31115  12.986  27.516   4.918
 2795POPC   C1B31116  14.034  27.322   3.714
 2795POPC   C2B31117  14.057  27.249   4.117
 2795POPC   C3B31118  13.870  27.333   4.543
 2795POPC   C4B31119  13.621  27.263   4.997
 2796POPC   NC331120   8.657  29.097   2.965
 2796POPC   PO431121   9.012  29.145   3.106
 2796POPC   GL131122   9.152  28.976   3.503
 2796POPC   GL231123   9.227  29.262   3.532
 2796POPC   C1A31124   8.871  29.000   3.819
 2796POPC   D2A31125   8.551  29.203   4.105
 2796POPC   C3A31126   8.248  29.239   3.806
 2796POPC   C4A31127   7.865  29.417   3.593
 2796POPC   C1B31128   9.183  29.481   3.847
 2796POPC   C2B31129   8.996  29.534   4.188
 2796POPC   C3B31130   8.977  29.777   4.688
 2796POPC   C4B31131   9.278  29.654   5.026
 2797POPC   NC331132  35.694  26.145   3.511
 2797POPC   PO431133  36.090  26.231   3.583
 2797POPC   GL131134  35.851  26.379   3.914
 2797POPC   GL231135  36.084  26.129   4.030
 2797POPC   C1A31136  35.851  26.639   4.273
 2797POPC   D2A31137  35.838  26.759   4.754
 2797POPC   C3A31138  35.996  26.396   4.953
 2797POPC   C4A31139  35.963  26.072   5.340
 2797POPC   C1B31140  36.054  26.113   4.467
 2797POPC   C2B31141  35.927  25.877   4.829
 2797POPC   C3B31142  35.712  25.586   5.170
 2797POPC   C4B31143  35.759  25.156   5.409
 2798POPC   NC331144  24.609  10.484   3.509
 2798POPC   PO431145  24.508  10.386   3.849
 2798POPC   GL131146  24.582  10.309   4.231
 2798POPC   GL231147  24.732  10.109   4.204
 2798POPC   C1A31148  24.898  10.419   4.593
 2798POPC   D2A31149  24.946  10.491   5.143
 2798POPC   C3A31150  25.118  10.819   5.537
 2798POPC   C4A31151  25.220  11.252   5.749
 2798POPC   C1B31152  24.632   9.900   4.470
 2798POPC   C2B31153  24.546   9.905   4.842
 2798POPC   C3B31154  24.466  10.024   5.302
 2798POPC   C4B31155  24.517  10.203   5.758
 2799POPC   NC331156  24.706  24.280   3.028
 2799POPC   PO431157  24.927  24.565   3.226
 2799POPC   GL131158  24.956  24.763   3.581
 2799POPC   GL231159  25.191  24.627   3.670
 2799POPC   C1A31160  24.680  24.764   3.944
 2799POPC   D2A31161  24.486  24.644   4.352
 2799POPC   C3A31162  24.605  24.602   4.772
 2799POPC   C4A31163  24.696  24.473   5.270
 2799POPC   C1B31164  25.326  24.536   4.026
 2799POPC   C2B31165  25.397  24.268   4.354
 2799POPC   C3B31166  25.652  24.118   4.744
 2799POPC   C4B31167  26.060  24.247   5.028
 2800POPC   NC331168  12.594  33.783   3.803
 2800POPC   PO431169  12.464  33.402   3.816
 2800POPC   GL131170  12.350  33.278   4.222
 2800POPC   GL231171  12.495  33.018   4.215
 2800POPC   C1A31172  12.136  33.125   4.676
 2800POPC   D2A31173  12.101  32.778   5.095
 2800POPC   C3A31174  11.935  32.868   5.493
 2800POPC   C4A31175  11.689  32.980   5.925
 2800POPC   C1B31176  12.246  32.773   4.397
 2800POPC   C2B31177  11.906  32.706   4.661
 2800POPC   C3B31178  11.595  32.816   5.011
 2800POPC   C4B31179  11.421  32.787   5.496
 2801POPC   NC331180   6.749  19.480   3.152
 2801POPC   PO431181   6.440  19.542   3.365
 2801POPC   GL131182   6.237  19.557   3.679
 2801POPC   GL231183   6.249  19.736   3.870
 2801POPC   C1A31184   6.301  19.284   4.039
 2801POPC   D2A31185   6.126  19.019   4.519
 2801POPC   C3A31186   6.332  18.920   4.907
 2801POPC   C4A31187   6.069  18.679   5.231
 2801POPC   C1B31188   6.321  19.702   4.227
 2801POPC   C2B31189   6.374  19.450   4.568
 2801POPC   C3B31190   6.651  19.470   5.063
 2801POPC   C4B31191   6.671  19.488   5.489
 2802POPC   NC331192  24.917  15.850   3.640
 2802POPC   PO431193  25.012  16.242   3.694
 2802POPC   GL131194  24.641  16.365   4.000
 2802POPC   GL231195  24.854  16.477   4.164
 2802POPC   C1A31196  24.342  16.153   4.295
 2802POPC   D2A31197  24.038  16.039   4.687
 2802POPC   C3A31198  23.969  15.707   4.948
 2802POPC   C4A31199  23.723  15.377   5.234
 2802POPC   C1B31200  24.669  16.516   4.531
 2802POPC   C2B31201  24.464  16.273   4.802
 2802POPC   C3B31202  24.148  16.274   5.106
 2802POPC   C4B31203  23.747  16.039   5.252
 2803POPC   NC331204  10.402  15.504   3.586
 2803POPC   PO431205  10.101  15.734   3.643
 2803POPC   GL131206  10.110  16.104   3.948
 2803POPC   GL231207  10.103  15.851   4.085
 2803POPC   C1A31208   9.877  16.431   4.149
 2803POPC   D2A31209   9.571  16.491   4.623
 2803POPC   C3A31210   9.231  16.457   4.894
 2803POPC   C4A31211   9.108  16.626   5.356
 2803POPC   C1B31212   9.961  16.010   4.435
 2803POPC   C2B31213   9.923  16.165   4.817
 2803POPC   C3B31214  10.073  16.324   5.229
 2803POPC   C4B31215  10.108  16.512   5.670
 2804POPC   NC331216   0.671  28.921   3.309
 2804POPC   PO431217   0.944  28.867   3.596
 2804POPC   GL131218   0.739  28.996   3.849
 2804POPC   GL231219   0.943  29.128   4.024
 2804POPC   C1A31220   0.601  28.909   4.253
 2804POPC   D2A31221   0.515  28.766   4.712
 2804POPC   C3A31222   0.635  29.007   5.116
 2804POPC   C4A31223   0.811  29.327   5.365
 2804POPC   C1B31224   0.990  29.246   4.388
 2804POPC   C2B31225   1.156  29.609   4.498
 2804POPC   C3B31226   1.652  29.745   4.653
 2804POPC   C4B31227   2.024  29.471   4.390
 2805POPC   NC331228   9.597  31.675   3.210
 2805POPC   PO431229   9.418  31.398   2.974
 2805POPC   GL131230   9.356  31.258   3.430
 2805POPC   GL231231   9.284  31.479   3.452
 2805POPC   C1A31232   9.161  30.844   3.621
 2805POPC   D2A31233   8.918  30.388   3.497
 2805POPC   C3A31234   8.545  30.309   3.794
 2805POPC   C4A31235   8.606  30.354   4.276
 2805POPC   C1B31236   9.279  31.701   3.707
 2805POPC   C2B31237   9.377  31.841   4.048
 2805POPC   C3B31238   9.321  31.891   4.514
 2805POPC   C4B31239   9.452  31.793   5.011
 2806POPC   NC331240  35.873   6.575   2.819
 2806POPC   PO431241  35.689   6.441   3.148
 2806POPC   GL131242  35.630   6.768   3.507
 2806POPC   GL231243  35.866   6.736   3.552
 2806POPC   C1A31244  35.383   6.754   3.882
 2806POPC   D2A31245  35.233   6.792   4.375
 2806POPC   C3A31246  35.405   6.671   4.766
 2806POPC   C4A31247  35.678   6.858   5.096
 2806POPC   C1B31248  35.811   6.514   3.846
 2806POPC   C2B31249  35.827   6.406   4.249
 2806POPC   C3B31250  35.900   6.517   4.676
 2806POPC   C4B31251  36.194   6.276   4.963
 2807POPC   NC331252   3.585   7.105   3.198
 2807POPC   PO431253   3.804   7.082   3.580
 2807POPC   GL131254   3.987   7.358   3.862
 2807POPC   GL231255   3.674   7.447   3.804
 2807POPC   C1A31256   4.020   7.577   4.256
 2807POPC   D2A31257   4.138   7.990   4.621
 2807POPC   C3A31258   3.970   8.155   4.970
 2807POPC   C4A31259   3.929   8.006   5.415
 2807POPC   C1B31260   3.492   7.474   4.171
 2807POPC   C2B31261   3.453   7.336   4.548
 2807POPC   C3B31262   3.700   7.103   4.865
 2807POPC   C4B31263   3.979   6.748   5.132
 2808POPC   NC331264  22.093   4.243   2.944
 2808POPC   PO431265  22.316   3.947   3.089
 2808POPC   GL131266  22.164   3.783   3.455
 2808POPC   GL231267  22.087   3.996   3.604
 2808POPC   C1A31268  22.355   3.587   3.798
 2808POPC   D2A31269  22.062   3.394   4.159
 2808POPC   C3A31270  21.698   3.517   4.467
 2808POPC   C4A31271  21.785   4.000   4.619
 2808POPC   C1B31272  22.272   4.064   3.962
 2808POPC   C2B31273  22.652   4.043   4.180
 2808POPC   C3B31274  23.093   3.931   4.396
 2808POPC   C4B31275  23.074   3.651   4.793
 2809POPC   NC331276  15.503  16.502   3.532
 2809POPC   PO431277  15.141  16.554   3.636
 2809POPC   GL131278  15.160  16.574   4.017
 2809POPC   GL231279  15.317  16.792   3.966
 2809POPC   C1A31280  15.098  16.536   4.480
 2809POPC   D2A31281  14.769  16.273   4.838
 2809POPC   C3A31282  14.512  16.450   5.187
 2809POPC   C4A31283  14.323  16.259   5.614
 2809POPC   C1B31284  15.417  16.773   4.296
 2809POPC   C2B31285  15.471  16.772   4.704
 2809POPC   C3B31286  15.333  16.830   5.161
 2809POPC   C4B31287  15.401  16.958   5.589
 2810POPC   NC331288   0.165  23.793   3.886
 2810POPC   PO431289  -0.028  23.504   4.098
 2810POPC   GL131290  -0.013  23.426   4.493
 2810POPC   GL231291   0.168  23.180   4.519
 2810POPC   C1A31292  -0.079  23.343   4.939
 2810POPC   D2A31293  -0.165  22.966   5.287
 2810POPC   C3A31294  -0.679  22.956   5.177
 2810POPC   C4A31295  -0.810  22.947   4.670
 2810POPC   C1B31296   0.331  23.055   4.828
 2810POPC   C2B31297   0.355  22.780   5.172
 2810POPC   C3B31298   0.448  22.455   5.532
 2810POPC   C4B31299   0.512  22.070   5.870
 2811POPC   NC331300   0.668  11.463   3.258
 2811POPC   PO431301   0.450  11.657   3.497
 2811POPC   GL131302   0.460  11.668   3.894
 2811POPC   GL231303   0.405  11.955   4.036
 2811POPC   C1A31304   0.333  11.474   4.218
 2811POPC   D2A31305  -0.082  11.534   4.431
 2811POPC   C3A31306  -0.255  11.723   4.880
 2811POPC   C4A31307  -0.500  11.558   5.197
 2811POPC   C1B31308   0.414  11.899   4.425
 2811POPC   C2B31309   0.299  11.675   4.746
 2811POPC   C3B31310  -0.015  11.264   4.939
 2811POPC   C4B31311  -0.449  11.029   4.992
 2812POPC   NC331312  10.401  17.019   3.707
 2812POPC   PO431313  10.577  16.668   3.674
 2812POPC   GL131314  10.537  16.387   3.960
 2812POPC   GL231315  10.385  16.398   4.101
 2812POPC   C1A31316  10.864  16.450   4.331
 2812POPC   D2A31317  11.028  16.685   4.724
 2812POPC   C3A31318  11.113  16.800   5.096
 2812POPC   C4A31319  11.171  17.124   5.494
 2812POPC   C1B31320  10.435  16.338   4.460
 2812POPC   C2B31321  10.606  16.213   4.779
 2812POPC   C3B31322  10.889  16.321   5.086
 2812POPC   C4B31323  11.142  16.371   5.476
 2813POPC   NC331324  32.358  26.782   3.631
 2813POPC   PO431325  32.598  26.587   3.882
 2813POPC   GL131326  32.609  26.190   4.050
 2813POPC   GL231327  32.330  26.225   3.979
 2813POPC   C1A31328  32.465  26.097   4.475
 2813POPC   D2A31329  32.668  25.825   4.829
 2813POPC   C3A31330  32.992  25.947   5.153
 2813POPC   C4A31331  33.413  25.998   5.346
 2813POPC   C1B31332  32.089  26.232   4.290
 2813POPC   C2B31333  31.941  26.021   4.569
 2813POPC   C3B31334  31.798  25.914   5.003
 2813POPC   C4B31335  31.774  25.704   5.415
 2814POPC   NC331336  28.387   2.764   3.675
 2814POPC   PO431337  28.517   2.386   3.741
 2814POPC   GL131338  28.482   2.145   4.064
 2814POPC   GL231339  28.781   2.034   4.054
 2814POPC   C1A31340  28.322   2.285   4.509
 2814POPC   D2A31341  27.936   2.473   4.784
 2814POPC   C3A31342  27.558   2.377   5.035
 2814POPC   C4A31343  27.233   2.721   5.128
 2814POPC   C1B31344  28.932   2.013   4.399
 2814POPC   C2B31345  29.137   2.101   4.738
 2814POPC   C3B31346  29.516   2.211   5.021
 2814POPC   C4B31347  29.928   2.324   5.289
 2815POPC   NC331348  30.915  24.813   2.908
 2815POPC   PO431349  30.800  24.489   3.140
 2815POPC   GL131350  30.503  24.706   3.392
 2815POPC   GL231351  30.316  24.912   3.418
 2815POPC   C1A31352  30.569  24.513   3.796
 2815POPC   D2A31353  30.933  24.243   4.054
 2815POPC   C3A31354  31.068  24.082   4.442
 2815POPC   C4A31355  31.058  23.915   4.873
 2815POPC   C1B31356  30.083  24.839   3.716
 2815POPC   C2B31357  29.753  24.810   3.973
 2815POPC   C3B31358  29.758  24.795   4.473
 2815POPC   C4B31359  29.564  24.937   4.904
 2816POPC   NC331360  12.431   0.352   2.938
 2816POPC   PO431361  12.559   0.696   2.965
 2816POPC   GL131362  12.341   0.701   3.405
 2816POPC   GL231363  12.388   1.002   3.377
 2816POPC   C1A31364  12.016   0.535   3.732
 2816POPC   D2A31365  11.668   0.605   4.162
 2816POPC   C3A31366  11.915   0.798   4.471
 2816POPC   C4A31367  12.239   0.773   4.858
 2816POPC   C1B31368  12.199   1.137   3.713
 2816POPC   C2B31369  12.202   1.172   4.164
 2816POPC   C3B31370  12.147   1.175   4.619
 2816POPC   C4B31371  11.943   1.469   4.911
 2817POPC   NC331372  24.708   2.034   3.323
 2817POPC   PO431373  24.763   2.435   3.305
 2817POPC   GL131374  24.645   2.573   3.720
 2817POPC   GL231375  24.827   2.827   3.628
 2817POPC   C1A31376  24.609   2.549   4.142
 2817POPC   D2A31377  24.519   2.608   4.579
 2817POPC   C3A31378  24.817   2.420   4.911
 2817POPC   C4A31379  25.033   2.356   5.321
 2817POPC   C1B31380  24.920   2.984   3.953
 2817POPC   C2B31381  24.761   3.043   4.291
 2817POPC   C3B31382  24.450   3.139   4.670
 2817POPC   C4B31383  24.265   3.032   5.163
 2818POPC   NC331384   6.217  21.601   3.655
 2818POPC   PO431385   6.114  21.290   3.443
 2818POPC   GL131386   6.234  21.111   3.753
 2818POPC   GL231387   6.004  21.032   3.932
 2818POPC   C1A31388   6.460  21.247   4.078
 2818POPC   D2A31389   6.714  21.092   4.467
 2818POPC   C3A31390   7.073  21.067   4.766
 2818POPC   C4A31391   7.350  21.449   4.966
 2818POPC   C1B31392   6.010  21.077   4.326
 2818POPC   C2B31393   6.253  21.179   4.638
 2818POPC   C3B31394   6.540  21.075   4.950
 2818POPC   C4B31395   6.847  21.055   5.276
 2819POPC   NC331396   3.799  14.844   4.117
 2819POPC   PO431397   4.039  14.557   4.223
 2819POPC   GL131398   4.171  14.410   4.556
 2819POPC   GL231399   3.986  14.094   4.514
 2819POPC   C1A31400   4.394  14.481   4.837
 2819POPC   D2A31401   4.598  14.588   5.300
 2819POPC   C3A31402   4.531  15.063   5.409
 2819POPC   C4A31403   4.309  15.491   5.483
 2819POPC   C1B31404   4.076  14.152   4.939
 2819POPC   C2B31405   3.976  14.155   5.308
 2819POPC   C3B31406   3.888  14.274   5.723
 2819POPC   C4B31407   3.643  14.172   6.166
 2820POPC   NC331408  15.123  23.932   3.635
 2820POPC   PO431409  14.765  23.795   3.675
 2820POPC   GL131410  14.792  23.857   4.029
 2820POPC   GL231411  15.082  23.865   4.107
 2820POPC   C1A31412  14.691  23.739   4.450
 2820POPC   D2A31413  14.573  23.426   4.793
 2820POPC   C3A31414  14.684  23.337   5.157
 2820POPC   C4A31415  14.610  23.703   5.489
 2820POPC   C1B31416  15.120  23.792   4.465
 2820POPC   C2B31417  15.094  23.665   4.870
 2820POPC   C3B31418  15.147  23.507   5.263
 2820POPC   C4B31419  15.320  23.359   5.726
 2821POPC   NC331420   4.168  17.066   3.526
 2821POPC   PO431421   3.911  16.809   3.523
 2821POPC   GL131422   3.969  16.568   3.869
 2821POPC   GL231423   3.987  16.874   3.980
 2821POPC   C1A31424   3.850  16.353   4.191
 2821POPC   D2A31425   3.841  15.792   4.296
 2821POPC   C3A31426   3.889  15.630   4.698
 2821POPC   C4A31427   4.205  15.468   4.998
 2821POPC   C1B31428   4.073  16.717   4.269
 2821POPC   C2B31429   4.096  16.435   4.581
 2821POPC   C3B31430   4.286  16.499   5.070
 2821POPC   C4B31431   4.640  16.445   5.394
 2822POPC   NC331432  30.875  10.357   3.624
 2822POPC   PO431433  31.159  10.649   3.764
 2822POPC   GL131434  30.994  10.778   4.004
 2822POPC   GL231435  30.961  10.431   4.084
 2822POPC   C1A31436  31.050  11.178   4.198
 2822POPC   D2A31437  31.373  11.374   4.563
 2822POPC   C3A31438  31.677  11.155   4.792
 2822POPC   C4A31439  32.134  10.967   4.826
 2822POPC   C1B31440  30.984  10.291   4.432
 2822POPC   C2B31441  31.265  10.190   4.676
 2822POPC   C3B31442  31.291  10.261   5.171
 2822POPC   C4B31443  31.180  10.301   5.685
 2823POPC   NC331444  18.561  34.902   3.570
 2823POPC   PO431445  18.376  34.508   3.570
 2823POPC   GL131446  18.026  34.404   3.764
 2823POPC   GL231447  18.089  34.617   3.952
 2823POPC   C1A31448  18.091  34.239   4.185
 2823POPC   D2A31449  18.180  34.200   4.700
 2823POPC   C3A31450  18.366  34.098   5.173
 2823POPC   C4A31451  18.740  33.855   5.402
 2823POPC   C1B31452  18.050  34.678   4.342
 2823POPC   C2B31453  18.204  34.695   4.715
 2823POPC   C3B31454  18.273  34.577   5.220
 2823POPC   C4B31455  18.581  34.447   5.616
 2824POPC   NC331456  28.896  22.956   3.028
 2824POPC   PO431457  29.121  23.220   3.228
 2824POPC   GL131458  29.187  23.163   3.646
 2824POPC   GL231459  29.411  23.219   3.721
 2824POPC   C1A31460  28.972  22.943   3.899
 2824POPC   D2A31461  28.862  22.650   4.282
 2824POPC   C3A31462  28.999  22.872   4.673
 2824POPC   C4A31463  29.185  23.020   5.152
 2824POPC   C1B31464  29.543  23.480   3.966
 2824POPC   C2B31465  29.730  23.644   4.295
 2824POPC   C3B31466  29.672  23.858   4.657
 2824POPC   C4B31467  29.632  23.975   5.168
 2825POPC   NC331468  28.621   9.967   3.308
 2825POPC   PO431469  28.283  10.013   3.456
 2825POPC   GL131470  28.309   9.832   3.831
 2825POPC   GL231471  28.643   9.885   3.842
 2825POPC   C1A31472  28.224   9.374   4.076
 2825POPC   D2A31473  27.986   8.997   4.359
 2825POPC   C3A31474  27.924   8.967   4.777
 2825POPC   C4A31475  27.997   9.172   5.218
 2825POPC   C1B31476  28.557   9.870   4.251
 2825POPC   C2B31477  28.584  10.122   4.508
 2825POPC   C3B31478  28.540  10.440   4.939
 2825POPC   C4B31479  28.671  10.901   4.972
 2826POPC   NC331480  14.216   2.083   2.781
 2826POPC   PO431481  13.897   2.280   2.972
 2826POPC   GL131482  13.925   2.312   3.434
 2826POPC   GL231483  13.887   2.558   3.540
 2826POPC   C1A31484  14.093   2.202   3.856
 2826POPC   D2A31485  14.148   2.125   4.304
 2826POPC   C3A31486  14.019   1.955   4.740
 2826POPC   C4A31487  13.774   2.258   5.017
 2826POPC   C1B31488  13.851   2.658   3.855
 2826POPC   C2B31489  13.808   2.739   4.232
 2826POPC   C3B31490  13.653   2.726   4.709
 2826POPC   C4B31491  13.847   2.848   5.124
 2827POPC   NC331492  32.790  16.276   3.373
 2827POPC   PO431493  32.822  16.652   3.523
 2827POPC   GL131494  32.873  16.895   3.859
 2827POPC   GL231495  32.718  17.127   3.795
 2827POPC   C1A31496  32.643  16.617   4.218
 2827POPC   D2A31497  32.267  16.482   4.536
 2827POPC   C3A31498  32.291  16.513   5.019
 2827POPC   C4A31499  32.497  16.774   5.500
 2827POPC   C1B31500  32.545  17.092   4.041
 2827POPC   C2B31501  32.244  17.070   4.338
 2827POPC   C3B31502  32.162  17.180   4.801
 2827POPC   C4B31503  32.087  16.984   5.229
 2828POPC   NC331504  16.313  15.651   3.197
 2828POPC   PO431505  16.725  15.713   3.279
 2828POPC   GL131506  16.815  15.868   3.678
 2828POPC   GL231507  16.959  15.646   3.717
 2828POPC   C1A31508  16.620  15.968   4.112
 2828POPC   D2A31509  16.329  16.337   4.241
 2828POPC   C3A31510  16.408  16.705   4.608
 2828POPC   C4A31511  16.598  16.808   5.042
 2828POPC   C1B31512  17.027  15.702   4.083
 2828POPC   C2B31513  17.201  15.554   4.483
 2828POPC   C3B31514  17.136  15.390   4.919
 2828POPC   C4B31515  16.719  15.460   4.725
 2829POPC   NC331516  19.203   5.967   3.707
 2829POPC   PO431517  19.287   5.610   3.627
 2829POPC   GL131518  19.749   5.627   3.731
 2829POPC   GL231519  19.633   5.845   3.903
 2829POPC   C1A31520  20.195   5.621   3.679
 2829POPC   D2A31521  20.493   5.766   4.047
 2829POPC   C3A31522  20.458   5.788   4.478
 2829POPC   C4A31523  20.476   6.172   4.874
 2829POPC   C1B31524  19.738   6.004   4.232
 2829POPC   C2B31525  19.730   6.279   4.508
 2829POPC   C3B31526  19.929   6.409   4.872
 2829POPC   C4B31527  20.290   6.532   5.219
 2830POPC   NC331528  14.193  31.155   3.970
 2830POPC   PO431529  14.159  31.517   3.899
 2830POPC   GL131530  14.358  31.517   4.278
 2830POPC   GL231531  14.560  31.728   4.362
 2830POPC   C1A31532  14.240  31.574   4.688
 2830POPC   D2A31533  14.109  31.503   5.174
 2830POPC   C3A31534  13.733  31.564   5.408
 2830POPC   C4A31535  13.436  31.792   5.741
 2830POPC   C1B31536  14.661  31.721   4.719
 2830POPC   C2B31537  14.938  31.809   4.946
 2830POPC   C3B31538  15.264  31.748   5.332
 2830POPC   C4B31539  15.654  31.733   5.653
 2831POPC   NC331540  34.124   2.692   3.592
 2831POPC   PO431541  34.359   2.403   3.389
 2831POPC   GL131542  34.418   2.278   3.715
 2831POPC   GL231543  34.690   2.213   3.699
 2831POPC   C1A31544  34.278   2.125   4.095
 2831POPC   D2A31545  34.187   2.146   4.568
 2831POPC   C3A31546  33.967   2.255   4.951
 2831POPC   C4A31547  33.865   2.413   5.425
 2831POPC   C1B31548  34.776   2.139   4.100
 2831POPC   C2B31549  34.712   2.192   4.493
 2831POPC   C3B31550  34.599   2.332   4.957
 2831POPC   C4B31551  34.337   2.562   5.235
 2832POPC   NC331552  23.368   8.855   3.724
 2832POPC   PO431553  23.544   8.545   3.524
 2832POPC   GL131554  23.771   8.194   3.777
 2832POPC   GL231555  23.829   8.449   3.963
 2832POPC   C1A31556  23.864   7.936   4.147
 2832POPC   D2A31557  24.008   8.197   4.606
 2832POPC   C3A31558  24.264   8.401   4.887
 2832POPC   C4A31559  24.327   8.239   5.332
 2832POPC   C1B31560  23.968   8.514   4.294
 2832POPC   C2B31561  23.981   8.741   4.587
 2832POPC   C3B31562  23.976   8.727   5.086
 2832POPC   C4B31563  23.737   8.450   5.509
 2833POPC   NC331564   6.109  35.455   3.171
 2833POPC   PO431565   5.791  35.327   3.341
 2833POPC   GL131566   5.709  35.236   3.740
 2833POPC   GL231567   5.740  34.876   3.683
 2833POPC   C1A31568   5.524  35.290   4.087
 2833POPC   D2A31569   5.458  35.259   4.648
 2833POPC   C3A31570   5.772  35.415   5.053
 2833POPC   C4A31571   6.164  35.612   5.144
 2833POPC   C1B31572   5.735  34.864   4.075
 2833POPC   C2B31573   5.857  35.018   4.420
 2833POPC   C3B31574   6.176  35.247   4.681
 2833POPC   C4B31575   6.640  35.340   4.786
 2834POPC   NC331576   7.579  32.148   2.939
 2834POPC   PO431577   7.628  32.021   3.275
 2834POPC   GL131578   7.651  32.147   3.625
 2834POPC   GL231579   7.607  32.454   3.622
 2834POPC   C1A31580   7.602  31.911   3.993
 2834POPC   D2A31581   7.750  31.643   4.351
 2834POPC   C3A31582   7.832  31.707   4.816
 2834POPC   C4A31583   7.373  31.723   5.059
 2834POPC   C1B31584   7.611  32.477   3.993
 2834POPC   C2B31585   7.448  32.458   4.418
 2834POPC   C3B31586   7.256  32.546   4.850
 2834POPC   C4B31587   7.394  32.504   5.303
 2835POPC   NC331588  35.111  11.707   3.000
 2835POPC   PO431589  35.183  11.517   3.330
 2835POPC   GL131590  35.026  11.225   3.626
 2835POPC   GL231591  35.009  11.545   3.734
 2835POPC   C1A31592  34.797  11.045   4.037
 2835POPC   D2A31593  34.554  10.805   4.337
 2835POPC   C3A31594  34.470  10.662   4.771
 2835POPC   C4A31595  34.178  10.947   4.910
 2835POPC   C1B31596  35.008  11.593   4.126
 2835POPC   C2B31597  34.923  11.395   4.470
 2835POPC   C3B31598  34.701  11.134   4.819
 2835POPC   C4B31599  34.582  10.917   5.256
 2836POPC   NC331600  31.750  12.493   3.314
 2836POPC   PO431601  32.049  12.791   3.251
 2836POPC   GL131602  31.994  13.013   3.627
 2836POPC   GL231603  32.274  13.100   3.541
 2836POPC   C1A31604  32.038  12.835   3.997
 2836POPC   D2A31605  32.193  12.621   4.447
 2836POPC   C3A31606  32.209  12.099   4.481
 2836POPC   C4A31607  32.304  11.570   4.570
 2836POPC   C1B31608  32.473  13.058   3.890
 2836POPC   C2B31609  32.528  13.068   4.291
 2836POPC   C3B31610  32.455  12.952   4.666
 2836POPC   C4B31611  32.416  12.503   4.909
 2837POPC   NC331612  28.380  17.210   3.487
 2837POPC   PO431613  28.528  16.873   3.598
 2837POPC   GL131614  28.732  17.072   3.988
 2837POPC   GL231615  28.683  17.299   3.932
 2837POPC   C1A31616  28.947  16.792   4.364
 2837POPC   D2A31617  28.850  16.820   4.839
 2837POPC   C3A31618  29.063  16.677   5.150
 2837POPC   C4A31619  29.526  16.410   5.053
 2837POPC   C1B31620  28.702  17.592   4.097
 2837POPC   C2B31621  28.718  17.962   4.287
 2837POPC   C3B31622  28.945  18.245   4.620
 2837POPC   C4B31623  29.143  18.475   4.991
 2838POPC   NC331624  13.059   4.250   3.701
 2838POPC   PO431625  12.841   4.386   3.415
 2838POPC   GL131626  12.453   4.318   3.627
 2838POPC   GL231627  12.490   4.544   3.709
 2838POPC   C1A31628  12.273   4.095   3.975
 2838POPC   D2A31629  12.408   4.221   4.397
 2838POPC   C3A31630  12.425   4.227   4.837
 2838POPC   C4A31631  12.604   4.279   5.337
 2838POPC   C1B31632  12.551   4.518   4.050
 2838POPC   C2B31633  12.805   4.558   4.403
 2838POPC   C3B31634  12.906   4.590   4.906
 2838POPC   C4B31635  12.838   4.740   5.365
 2839POPC   NC331636   6.758  22.472   3.545
 2839POPC   PO431637   6.537  22.203   3.693
 2839POPC   GL131638   6.209  21.942   3.961
 2839POPC   GL231639   6.437  21.782   4.018
 2839POPC   C1A31640   6.086  21.927   4.466
 2839POPC   D2A31641   6.014  21.875   4.964
 2839POPC   C3A31642   5.865  21.773   5.359
 2839POPC   C4A31643   5.915  21.317   5.571
 2839POPC   C1B31644   6.470  21.686   4.331
 2839POPC   C2B31645   6.419  21.672   4.722
 2839POPC   C3B31646   6.356  21.628   5.198
 2839POPC   C4B31647   6.301  21.633   5.637
 2840POPC   NC331648  18.782  15.564   3.262
 2840POPC   PO431649  18.867  15.659   3.625
 2840POPC   GL131650  18.749  15.665   4.001
 2840POPC   GL231651  19.039  15.491   4.027
 2840POPC   C1A31652  18.562  15.848   4.430
 2840POPC   D2A31653  18.566  15.925   4.978
 2840POPC   C3A31654  19.035  15.881   5.035
 2840POPC   C4A31655  19.477  15.869   4.672
 2840POPC   C1B31656  19.357  15.445   4.203
 2840POPC   C2B31657  19.622  15.203   4.447
 2840POPC   C3B31658  20.018  14.954   4.438
 2840POPC   C4B31659  20.433  14.653   4.379
 2841POPC   NC331660  27.258  32.841   3.035
 2841POPC   PO431661  27.315  32.452   2.981
 2841POPC   GL131662  27.272  32.447   3.413
 2841POPC   GL231663  27.086  32.689   3.451
 2841POPC   C1A31664  27.335  32.146   3.771
 2841POPC   D2A31665  27.331  31.910   4.151
 2841POPC   C3A31666  27.682  31.652   4.329
 2841POPC   C4A31667  28.171  31.416   4.373
 2841POPC   C1B31668  26.995  32.510   3.751
 2841POPC   C2B31669  27.049  32.444   4.156
 2841POPC   C3B31670  27.300  32.250   4.514
 2841POPC   C4B31671  27.520  31.879   4.802
 2842POPC   NC331672  17.951  32.094   3.340
 2842POPC   PO431673  18.180  31.833   3.440
 2842POPC   GL131674  18.069  31.750   3.819
 2842POPC   GL231675  17.983  31.513   3.823
 2842POPC   C1A31676  18.069  31.820   4.242
 2842POPC   D2A31677  17.768  31.877   4.602
 2842POPC   C3A31678  17.889  31.624   4.953
 2842POPC   C4A31679  18.022  31.205   5.147
 2842POPC   C1B31680  17.691  31.379   4.000
 2842POPC   C2B31681  17.383  31.489   4.227
 2842POPC   C3B31682  16.931  31.590   4.448
 2842POPC   C4B31683  16.446  31.530   4.635
 2843POPC   NC331684  32.086  22.694   3.259
 2843POPC   PO431685  32.373  22.423   3.164
 2843POPC   GL131686  32.265  22.292   3.548
 2843POPC   GL231687  32.085  22.481   3.694
 2843POPC   C1A31688  32.506  22.380   3.929
 2843POPC   D2A31689  32.791  22.285   4.327
 2843POPC   C3A31690  32.819  22.258   4.819
 2843POPC   C4A31691  32.664  22.236   5.284
 2843POPC   C1B31692  32.129  22.632   4.013
 2843POPC   C2B31693  32.087  22.864   4.352
 2843POPC   C3B31694  31.924  22.973   4.779
 2843POPC   C4B31695  31.868  23.049   5.207
 2844POPC   NC331696  23.988   0.883   3.040
 2844POPC   PO431697  23.806   1.201   2.980
 2844POPC   GL131698  23.721   1.240   3.424
 2844POPC   GL231699  23.886   0.984   3.517
 2844POPC   C1A31700  23.770   1.553   3.710
 2844POPC   D2A31701  23.787   2.056   3.678
 2844POPC   C3A31702  23.495   2.408   3.722
 2844POPC   C4A31703  23.258   2.808   3.640
 2844POPC   C1B31704  23.695   0.813   3.785
 2844POPC   C2B31705  23.677   0.859   4.200
 2844POPC   C3B31706  23.692   0.961   4.771
 2844POPC   C4B31707  23.809   1.103   5.261
 2845POPC   NC331708  21.991  24.638   2.920
 2845POPC   PO431709  22.085  24.858   3.255
 2845POPC   GL131710  22.083  24.713   3.609
 2845POPC   GL231711  22.324  24.932   3.565
 2845POPC   C1A31712  22.052  24.636   4.036
 2845POPC   D2A31713  22.205  24.401   4.487
 2845POPC   C3A31714  22.648  24.413   4.677
 2845POPC   C4A31715  23.117  24.648   4.850
 2845POPC   C1B31716  22.303  25.037   3.917
 2845POPC   C2B31717  22.236  25.003   4.324
 2845POPC   C3B31718  22.225  24.912   4.797
 2845POPC   C4B31719  22.211  25.096   5.269
 2846POPC   NC331720   6.013  16.446   3.032
 2846POPC   PO431721   6.074  16.334   3.439
 2846POPC   GL131722   6.071  16.341   3.916
 2846POPC   GL231723   6.313  16.470   3.772
 2846POPC   C1A31724   5.953  16.517   4.230
 2846POPC   D2A31725   5.863  16.920   4.541
 2846POPC   C3A31726   6.273  16.829   4.826
 2846POPC   C4A31727   6.404  16.572   5.197
 2846POPC   C1B31728   6.391  16.806   3.946
 2846POPC   C2B31729   6.464  16.994   4.268
 2846POPC   C3B31730   6.621  17.122   4.708
 2846POPC   C4B31731   6.596  17.056   5.184
 2847POPC   NC331732  18.466   4.351   3.783
 2847POPC   PO431733  18.568   3.988   3.779
 2847POPC   GL131734  18.288   3.769   4.009
 2847POPC   GL231735  18.379   4.029   4.150
 2847POPC   C1A31736  18.328   3.556   4.382
 2847POPC   D2A31737  18.435   3.389   4.808
 2847POPC   C3A31738  18.139   3.241   5.171
 2847POPC   C4A31739  17.971   3.171   5.677
 2847POPC   C1B31740  18.189   4.072   4.444
 2847POPC   C2B31741  17.962   3.930   4.753
 2847POPC   C3B31742  17.761   3.825   5.159
 2847POPC   C4B31743  17.666   3.794   5.626
 2848POPC   NC331744   8.567  22.079   2.871
 2848POPC   PO431745   8.858  22.287   3.070
 2848POPC   GL131746   9.103  22.322   3.430
 2848POPC   GL231747   9.040  22.654   3.350
 2848POPC   C1A31748   8.964  22.079   3.732
 2848POPC   D2A31749   9.333  21.782   3.885
 2848POPC   C3A31750   9.376  21.557   4.308
 2848POPC   C4A31751   9.325  21.687   4.694
 2848POPC   C1B31752   9.221  22.994   3.328
 2848POPC   C2B31753   9.289  23.251   3.660
 2848POPC   C3B31754   9.442  23.534   4.037
 2848POPC   C4B31755   9.423  23.757   4.413
 2849POPC   NC331756   9.485  29.055   3.182
 2849POPC   PO431757   9.771  28.753   3.230
 2849POPC   GL131758   9.928  28.741   3.633
 2849POPC   GL231759   9.627  28.608   3.630
 2849POPC   C1A31760   9.809  28.804   3.998
 2849POPC   D2A31761   9.704  29.035   4.444
 2849POPC   C3A31762   9.384  28.854   4.606
 2849POPC   C4A31763   9.149  28.488   4.860
 2849POPC   C1B31764   9.414  28.473   3.880
 2849POPC   C2B31765   9.276  28.271   4.246
 2849POPC   C3B31766   9.336  28.013   4.652
 2849POPC   C4B31767   9.522  27.735   5.049
 2850POPC   NC331768  26.977   2.949   3.656
 2850POPC   PO431769  27.104   3.317   3.774
 2850POPC   GL131770  27.358   3.565   4.045
 2850POPC   GL231771  27.310   3.803   3.982
 2850POPC   C1A31772  27.439   3.401   4.387
 2850POPC   D2A31773  27.155   3.311   4.764
 2850POPC   C3A31774  27.060   3.363   5.205
 2850POPC   C4A31775  27.322   3.156   5.491
 2850POPC   C1B31776  27.521   3.877   4.302
 2850POPC   C2B31777  27.660   3.958   4.723
 2850POPC   C3B31778  27.730   4.045   5.186
 2850POPC   C4B31779  27.725   3.812   5.691
 2851POPC   NC331780  20.506   9.332   3.811
 2851POPC   PO431781  20.639   9.293   3.427
 2851POPC   GL131782  20.958   9.358   3.769
 2851POPC   GL231783  20.931   9.056   3.887
 2851POPC   C1A31784  21.031   9.612   4.028
 2851POPC   D2A31785  20.940   9.779   4.562
 2851POPC   C3A31786  21.083  10.165   4.771
 2851POPC   C4A31787  20.958  10.644   4.627
 2851POPC   C1B31788  20.764   9.043   4.237
 2851POPC   C2B31789  20.775   9.005   4.642
 2851POPC   C3B31790  20.921   9.045   5.082
 2851POPC   C4B31791  21.024   9.084   5.567
 2852POPC   NC331792   4.643   2.550   3.144
 2852POPC   PO431793   5.022   2.537   3.159
 2852POPC   GL131794   5.014   2.667   3.497
 2852POPC   GL231795   4.741   2.865   3.478
 2852POPC   C1A31796   5.151   2.635   3.914
 2852POPC   D2A31797   4.976   2.653   4.385
 2852POPC   C3A31798   5.106   2.268   4.667
 2852POPC   C4A31799   5.264   2.178   5.140
 2852POPC   C1B31800   4.724   3.157   3.715
 2852POPC   C2B31801   4.712   3.483   3.988
 2852POPC   C3B31802   4.742   3.770   4.360
 2852POPC   C4B31803   4.620   3.963   4.810
 2853POPC   NC331804  10.226  11.207   3.452
 2853POPC   PO431805   9.864  11.070   3.355
 2853POPC   GL131806   9.734  10.852   3.650
 2853POPC   GL231807   9.949  10.733   3.748
 2853POPC   C1A31808   9.378  10.979   3.985
 2853POPC   D2A31809   8.890  11.155   4.076
 2853POPC   C3A31810   8.805  11.477   3.753
 2853POPC   C4A31811   8.545  11.895   3.800
 2853POPC   C1B31812   9.834  10.591   4.071
 2853POPC   C2B31813   9.487  10.603   4.282
 2853POPC   C3B31814   9.009  10.803   4.395
 2853POPC   C4B31815   8.541  10.815   4.550
 2854POPC   NC331816  25.171  16.535   3.374
 2854POPC   PO431817  25.132  16.955   3.417
 2854POPC   GL131818  25.393  16.803   3.774
 2854POPC   GL231819  25.146  16.733   3.792
 2854POPC   C1A31820  25.586  16.936   4.123
 2854POPC   D2A31821  25.631  16.919   4.605
 2854POPC   C3A31822  25.698  17.160   5.025
 2854POPC   C4A31823  25.373  17.373   5.364
 2854POPC   C1B31824  25.184  16.738   4.186
 2854POPC   C2B31825  25.076  16.705   4.570
 2854POPC   C3B31826  24.835  16.681   5.005
 2854POPC   C4B31827  24.746  16.402   5.416
 2855POPC   NC331828  17.834  17.132   3.554
 2855POPC   PO431829  18.070  17.411   3.769
 2855POPC   GL131830  17.820  17.370   4.091
 2855POPC   GL231831  18.147  17.331   4.258
 2855POPC   C1A31832  17.729  17.573   4.449
 2855POPC   D2A31833  17.877  17.731   4.922
 2855POPC   C3A31834  17.932  17.498   5.277
 2855POPC   C4A31835  17.702  17.176   5.544
 2855POPC   C1B31836  18.204  16.978   4.396
 2855POPC   C2B31837  18.268  16.756   4.683
 2855POPC   C3B31838  18.437  16.520   5.007
 2855POPC   C4B31839  18.868  16.303   5.176
 2856POPC   NC331840  28.506  21.121   3.303
 2856POPC   PO431841  28.181  20.942   3.153
 2856POPC   GL131842  28.052  20.954   3.534
 2856POPC   GL231843  28.012  20.726   3.620
 2856POPC   C1A31844  28.327  21.094   3.841
 2856POPC   D2A31845  28.007  21.040   4.254
 2856POPC   C3A31846  27.858  20.926   4.693
 2856POPC   C4A31847  27.992  21.019   5.197
 2856POPC   C1B31848  28.088  20.599   3.976
 2856POPC   C2B31849  28.364  20.692   4.236
 2856POPC   C3B31850  28.702  20.696   4.558
 2856POPC   C4B31851  29.035  20.852   4.905
 2857POPC   NC331852  14.140  11.151   3.825
 2857POPC   PO431853  14.262  10.892   3.572
 2857POPC   GL131854  14.392  10.689   3.936
 2857POPC   GL231855  14.487  10.910   3.991
 2857POPC   C1A31856  14.218  10.410   4.284
 2857POPC   D2A31857  14.347  10.512   4.756
 2857POPC   C3A31858  14.420  10.451   5.193
 2857POPC   C4A31859  14.369  10.419   5.703
 2857POPC   C1B31860  14.591  11.174   4.238
 2857POPC   C2B31861  14.809  11.392   4.520
 2857POPC   C3B31862  14.980  11.720   4.883
 2857POPC   C4B31863  14.924  11.976   5.306
 2858POPC   NC331864   0.259  24.370   3.348
 2858POPC   PO431865   0.447  24.077   3.602
 2858POPC   GL131866   0.453  24.149   3.996
 2858POPC   GL231867   0.676  24.324   4.064
 2858POPC   C1A31868   0.428  24.070   4.406
 2858POPC   D2A31869   0.264  23.874   4.819
 2858POPC   C3A31870   0.326  23.768   5.242
 2858POPC   C4A31871   0.400  23.878   5.679
 2858POPC   C1B31872   0.777  24.413   4.421
 2858POPC   C2B31873   0.757  24.625   4.847
 2858POPC   C3B31874   0.952  24.717   5.254
 2858POPC   C4B31875   0.952  24.583   5.759
 2859POPC   NC331876  30.691  15.255   3.366
 2859POPC   PO431877  30.632  15.682   3.288
 2859POPC   GL131878  30.712  15.959   3.681
 2859POPC   GL231879  30.437  16.012   3.757
 2859POPC   C1A31880  31.054  16.011   4.007
 2859POPC   D2A31881  31.208  16.422   4.229
 2859POPC   C3A31882  31.401  16.535   4.677
 2859POPC   C4A31883  31.488  16.842   5.040
 2859POPC   C1B31884  30.576  16.266   4.044
 2859POPC   C2B31885  30.786  16.267   4.407
 2859POPC   C3B31886  31.178  16.035   4.524
 2859POPC   C4B31887  31.605  15.843   4.514
 2860POPC   NC331888   5.978   0.508   2.734
 2860POPC   PO431889   5.889   0.500   3.118
 2860POPC   GL131890   5.858   0.595   3.505
 2860POPC   GL231891   5.603   0.784   3.505
 2860POPC   C1A31892   5.971   0.500   3.928
 2860POPC   D2A31893   5.932   0.434   4.418
 2860POPC   C3A31894   5.943   0.443   4.836
 2860POPC   C4A31895   5.976   0.328   5.382
 2860POPC   C1B31896   5.546   0.747   3.860
 2860POPC   C2B31897   5.499   0.763   4.268
 2860POPC   C3B31898   5.623   0.827   4.685
 2860POPC   C4B31899   5.715   0.737   5.191
 2861POPC   NC331900   7.153   2.428   3.192
 2861POPC   PO431901   7.293   2.468   3.513
 2861POPC   GL131902   7.351   2.286   3.905
 2861POPC   GL231903   7.556   2.079   3.654
 2861POPC   C1A31904   7.467   2.125   4.301
 2861POPC   D2A31905   7.625   2.126   4.800
 2861POPC   C3A31906   7.570   2.498   5.060
 2861POPC   C4A31907   7.207   2.327   5.279
 2861POPC   C1B31908   7.779   1.901   3.839
 2861POPC   C2B31909   7.793   1.764   4.253
 2861POPC   C3B31910   7.883   1.668   4.807
 2861POPC   C4B31911   7.642   1.391   5.208
 2862POPC   NC331912   0.399  21.280   3.784
 2862POPC   PO431913   0.133  20.988   3.845
 2862POPC   GL131914   0.257  20.821   4.245
 2862POPC   GL231915   0.249  20.509   4.262
 2862POPC   C1A31916  -0.130  20.840   4.434
 2862POPC   D2A31917  -0.545  21.062   4.588
 2862POPC   C3A31918  -0.491  20.988   5.076
 2862POPC   C4A31919  -0.512  20.998   5.563
 2862POPC   C1B31920   0.203  20.541   4.575
 2862POPC   C2B31921   0.287  20.739   4.921
 2862POPC   C3B31922   0.401  20.778   5.425
 2862POPC   C4B31923   0.362  20.969   5.883
 2863POPC   NC331924   4.931  31.653   3.325
 2863POPC   PO431925   4.931  31.917   3.565
 2863POPC   GL131926   5.076  31.928   4.016
 2863POPC   GL231927   5.397  31.857   3.860
 2863POPC   C1A31928   5.004  32.047   4.439
 2863POPC   D2A31929   5.212  32.391   4.687
 2863POPC   C3A31930   5.209  32.411   5.137
 2863POPC   C4A31931   5.499  32.357   5.521
 2863POPC   C1B31932   5.594  31.865   4.199
 2863POPC   C2B31933   5.497  31.958   4.576
 2863POPC   C3B31934   5.572  32.102   4.984
 2863POPC   C4B31935   5.658  32.586   4.980
 2864POPC   NC331936  25.260  23.640   3.000
 2864POPC   PO431937  25.578  23.877   2.962
 2864POPC   GL131938  25.368  24.059   3.296
 2864POPC   GL231939  25.065  24.013   3.197
 2864POPC   C1A31940  25.374  24.184   3.683
 2864POPC   D2A31941  25.378  23.823   4.057
 2864POPC   C3A31942  25.286  23.791   4.520
 2864POPC   C4A31943  25.261  23.931   4.958
 2864POPC   C1B31944  24.994  23.742   3.414
 2864POPC   C2B31945  24.962  23.681   3.813
 2864POPC   C3B31946  24.902  23.564   4.300
 2864POPC   C4B31947  24.805  23.583   4.827
 2865POPC   NC331948  18.903   4.888   3.146
 2865POPC   PO431949  18.781   5.149   3.476
 2865POPC   GL131950  18.670   5.279   3.987
 2865POPC   GL231951  18.888   5.396   3.907
 2865POPC   C1A31952  18.706   5.166   4.483
 2865POPC   D2A31953  18.609   5.104   4.941
 2865POPC   C3A31954  18.700   4.700   4.824
 2865POPC   C4A31955  18.914   4.238   4.856
 2865POPC   C1B31956  19.095   5.229   4.164
 2865POPC   C2B31957  19.247   5.410   4.513
 2865POPC   C3B31958  19.334   5.540   5.027
 2865POPC   C4B31959  19.522   5.449   5.419
 2866POPC   NC331960  23.869   2.060   2.751
 2866POPC   PO431961  24.149   2.232   2.963
 2866POPC   GL131962  24.286   2.148   3.379
 2866POPC   GL231963  24.179   1.877   3.350
 2866POPC   C1A31964  24.436   2.166   3.791
 2866POPC   D2A31965  24.342   2.143   4.301
 2866POPC   C3A31966  24.372   2.117   4.746
 2866POPC   C4A31967  24.236   2.533   5.013
 2866POPC   C1B31968  24.160   1.782   3.722
 2866POPC   C2B31969  24.059   1.741   4.145
 2866POPC   C3B31970  23.803   1.880   4.531
 2866POPC   C4B31971  23.703   2.306   4.696
 2867POPC   NC331972  14.981  28.335   3.411
 2867POPC   PO431973  14.894  27.918   3.433
 2867POPC   GL131974  14.620  27.914   3.730
 2867POPC   GL231975  14.559  28.194   3.741
 2867POPC   C1A31976  14.813  27.819   4.123
 2867POPC   D2A31977  14.877  27.656   4.666
 2867POPC   C3A31978  14.817  27.999   5.019
 2867POPC   C4A31979  14.783  28.052   5.519
 2867POPC   C1B31980  14.600  28.356   4.060
 2867POPC   C2B31981  14.775  28.429   4.437
 2867POPC   C3B31982  14.960  28.577   4.820
 2867POPC   C4B31983  14.918  28.520   5.360
 2868POPC   NC331984  14.746   7.389   3.662
 2868POPC   PO431985  14.808   7.634   4.018
 2868POPC   GL131986  14.644   7.764   4.340
 2868POPC   GL231987  14.743   8.080   4.299
 2868POPC   C1A31988  14.708   7.729   4.757
 2868POPC   D2A31989  15.015   7.503   4.992
 2868POPC   C3A31990  15.134   7.580   5.423
 2868POPC   C4A31991  15.423   7.928   5.624
 2868POPC   C1B31992  15.009   8.281   4.363
 2868POPC   C2B31993  15.396   8.290   4.495
 2868POPC   C3B31994  15.422   8.447   4.922
 2868POPC   C4B31995  15.684   8.687   5.213
 2869POPC   NC331996  30.788  12.799   3.887
 2869POPC   PO431997  30.899  12.464   4.030
 2869POPC   GL131998  31.073  12.477   4.418
 2869POPC   GL231999  30.846  12.364   4.504
 2869POPC   C1A32000  31.271  12.589   4.794
 2869POPC   D2A32001  31.595  12.788   5.143
 2869POPC   C3A32002  31.777  13.122   5.513
 2869POPC   C4A32003  32.254  12.961   5.643
 2869POPC   C1B32004  30.853  12.222   4.815
 2869POPC   C2B32005  30.966  12.312   5.157
 2869POPC   C3B32006  31.053  12.270   5.645
 2869POPC   C4B32007  31.407  12.617   5.662
 2870POPC   NC332008  33.572  17.298   3.455
 2870POPC   PO432009  33.670  17.153   3.828
 2870POPC   GL132010  33.822  17.189   4.257
 2870POPC   GL232011  33.958  16.942   4.218
 2870POPC   C1A32012  33.843  17.103   4.717
 2870POPC   D2A32013  34.040  17.455   5.034
 2870POPC   C3A32014  33.889  17.591   5.466
 2870POPC   C4A32015  33.611  17.834   5.883
 2870POPC   C1B32016  34.039  16.703   4.472
 2870POPC   C2B32017  34.162  16.509   4.816
 2870POPC   C3B32018  34.421  16.161   4.948
 2870POPC   C4B32019  34.687  15.716   4.851
 2871POPC   NC332020  15.494  24.225   2.992
 2871POPC   PO432021  15.494  23.984   3.306
 2871POPC   GL132022  15.577  24.258   3.606
 2871POPC   GL232023  15.838  24.369   3.612
 2871POPC   C1A32024  15.355  24.314   3.997
 2871POPC   D2A32025  15.332  24.212   4.406
 2871POPC   C3A32026  15.351  24.351   4.805
 2871POPC   C4A32027  15.451  24.716   5.177
 2871POPC   C1B32028  16.088  24.424   3.945
 2871POPC   C2B32029  16.122  24.621   4.377
 2871POPC   C3B32030  16.208  24.804   4.845
 2871POPC   C4B32031  16.319  25.127   5.240
 2872POPC   NC332032   1.117  12.103   3.526
 2872POPC   PO432033   1.046  12.414   3.781
 2872POPC   GL132034   0.775  12.397   4.014
 2872POPC   GL232035   0.638  12.650   4.067
 2872POPC   C1A32036   0.832  12.184   4.468
 2872POPC   D2A32037   0.791  11.929   4.944
 2872POPC   C3A32038   0.549  11.961   5.292
 2872POPC   C4A32039   0.290  12.239   5.612
 2872POPC   C1B32040   0.732  12.773   4.419
 2872POPC   C2B32041   0.839  12.889   4.799
 2872POPC   C3B32042   1.092  12.809   5.234
 2872POPC   C4B32043   1.515  13.023   5.132
 2873POPC   NC332044  17.853   5.880   3.544
 2873POPC   PO432045  18.188   5.906   3.831
 2873POPC   GL132046  18.157   5.950   4.312
 2873POPC   GL232047  17.854   5.933   4.199
 2873POPC   C1A32048  18.092   5.886   4.770
 2873POPC   D2A32049  18.139   5.950   5.247
 2873POPC   C3A32050  18.270   5.704   5.605
 2873POPC   C4A32051  18.713   5.749   5.837
 2873POPC   C1B32052  17.680   5.863   4.505
 2873POPC   C2B32053  17.569   5.741   4.891
 2873POPC   C3B32054  17.773   5.617   5.336
 2873POPC   C4B32055  17.862   5.515   5.866
 2874POPC   NC332056   8.681  14.419   4.100
 2874POPC   PO432057   8.799  14.207   3.809
 2874POPC   GL132058   8.674  13.904   3.936
 2874POPC   GL232059   8.489  13.681   3.859
 2874POPC   C1A32060   8.664  13.977   4.387
 2874POPC   D2A32061   8.559  14.089   4.840
 2874POPC   C3A32062   8.338  14.077   5.196
 2874POPC   C4A32063   8.177  14.178   5.663
 2874POPC   C1B32064   8.602  13.554   4.187
 2874POPC   C2B32065   8.413  13.515   4.547
 2874POPC   C3B32066   8.128  13.618   4.926
 2874POPC   C4B32067   7.742  13.627   5.256
 2875POPC   NC332068  20.703  17.430   3.492
 2875POPC   PO432069  20.381  17.255   3.579
 2875POPC   GL132070  20.504  17.298   3.972
 2875POPC   GL232071  20.757  17.233   3.981
 2875POPC   C1A32072  20.367  17.002   4.284
 2875POPC   D2A32073  20.676  16.743   4.649
 2875POPC   C3A32074  21.020  16.609   4.936
 2875POPC   C4A32075  21.210  16.581   5.294
 2875POPC   C1B32076  20.882  17.201   4.385
 2875POPC   C2B32077  20.995  17.112   4.802
 2875POPC   C3B32078  21.204  17.037   5.193
 2875POPC   C4B32079  21.420  16.898   5.657
 2876POPC   NC332080  13.352  34.885   3.482
 2876POPC   PO432081  13.737  34.897   3.345
 2876POPC   GL132082  13.901  35.005   3.763
 2876POPC   GL232083  14.047  34.787   3.811
 2876POPC   C1A32084  13.778  35.243   4.047
 2876POPC   D2A32085  13.517  35.640   4.196
 2876POPC   C3A32086  13.538  36.071   4.341
 2876POPC   C4A32087  13.664  36.430   4.636
 2876POPC   C1B32088  14.151  34.818   4.172
 2876POPC   C2B32089  14.122  34.856   4.546
 2876POPC   C3B32090  14.165  34.841   4.979
 2876POPC   C4B32091  13.873  34.818   5.316
 2877POPC   NC332092  25.897  31.485   3.443
 2877POPC   PO432093  26.191  31.544   3.217
 2877POPC   GL132094  26.309  31.774   3.515
 2877POPC   GL232095  26.141  31.946   3.668
 2877POPC   C1A32096  26.397  31.518   3.867
 2877POPC   D2A32097  26.494  31.167   4.247
 2877POPC   C3A32098  26.148  31.055   3.992
 2877POPC   C4A32099  25.968  30.811   3.637
 2877POPC   C1B32100  26.090  31.862   4.029
 2877POPC   C2B32101  26.092  32.006   4.401
 2877POPC   C3B32102  25.774  32.276   4.711
 2877POPC   C4B32103  25.592  32.685   4.776
 2878POPC   NC332104  34.785  10.098   2.819
 2878POPC   PO432105  34.929  10.200   3.151
 2878POPC   GL132106  34.701  10.367   3.535
 2878POPC   GL232107  34.998  10.230   3.621
 2878POPC   C1A32108  34.617  10.494   3.935
 2878POPC   D2A32109  34.300  10.355   4.330
 2878POPC   C3A32110  34.307  10.217   4.850
 2878POPC   C4A32111  34.524  10.375   5.318
 2878POPC   C1B32112  35.074  10.106   3.964
 2878POPC   C2B32113  34.965  10.038   4.296
 2878POPC   C3B32114  34.764   9.746   4.654
 2878POPC   C4B32115  34.329   9.745   4.931
 2879POPC   NC332116  27.726  24.305   2.457
 2879POPC   PO432117  27.702  24.552   2.716
 2879POPC   GL132118  27.643  24.762   3.083
 2879POPC   GL232119  27.880  24.598   3.276
 2879POPC   C1A32120  27.535  25.136   3.161
 2879POPC   D2A32121  27.136  25.442   3.208
 2879POPC   C3A32122  26.929  25.746   3.483
 2879POPC   C4A32123  26.649  26.109   3.580
 2879POPC   C1B32124  27.995  24.872   3.501
 2879POPC   C2B32125  28.147  24.887   3.882
 2879POPC   C3B32126  27.924  25.096   4.315
 2879POPC   C4B32127  27.814  24.983   4.801
 2880POPC   NC332128  28.044  25.897   2.689
 2880POPC   PO432129  28.104  25.494   2.748
 2880POPC   GL132130  27.985  25.460   3.057
 2880POPC   GL232131  28.020  25.223   3.225
 2880POPC   C1A32132  27.695  25.530   3.413
 2880POPC   D2A32133  27.418  25.526   3.840
 2880POPC   C3A32134  27.419  25.161   4.169
 2880POPC   C4A32135  27.368  24.959   4.586
 2880POPC   C1B32136  28.043  25.336   3.583
 2880POPC   C2B32137  27.996  25.506   3.969
 2880POPC   C3B32138  28.024  25.655   4.457
 2880POPC   C4B32139  28.337  25.932   4.739
 2881POPC   NC332140  12.670  29.237   3.637
 2881POPC   PO432141  12.665  29.002   3.337
 2881POPC   GL132142  12.285  28.854   3.500
 2881POPC   GL232143  12.505  28.817   3.731
 2881POPC   C1A32144  12.151  28.427   3.609
 2881POPC   D2A32145  11.990  28.139   3.951
 2881POPC   C3A32146  11.903  28.244   4.421
 2881POPC   C4A32147  11.789  28.417   4.808
 2881POPC   C1B32148  12.517  29.054   4.033
 2881POPC   C2B32149  12.493  29.202   4.414
 2881POPC   C3B32150  12.386  29.205   4.898
 2881POPC   C4B32151  12.641  29.066   5.343
 2882POPC   NC332152  35.266  29.121   3.175
 2882POPC   PO432153  35.420  28.813   3.392
 2882POPC   GL132154  35.426  28.830   3.802
 2882POPC   GL232155  35.347  29.077   3.898
 2882POPC   C1A32156  35.550  28.605   4.131
 2882POPC   D2A32157  35.705  28.211   4.452
 2882POPC   C3A32158  35.473  28.087   4.838
 2882POPC   C4A32159  35.232  28.010   5.172
 2882POPC   C1B32160  35.495  29.115   4.237
 2882POPC   C2B32161  35.759  29.398   4.443
 2882POPC   C3B32162  36.018  29.547   4.852
 2882POPC   C4B32163  36.027  29.992   5.033
 2883POPC   NC332164  30.780  21.296   2.825
 2883POPC   PO432165  30.736  21.591   3.080
 2883POPC   GL132166  30.832  21.654   3.547
 2883POPC   GL232167  30.561  21.496   3.563
 2883POPC   C1A32168  31.045  21.901   3.764
 2883POPC   D2A32169  31.164  22.241   4.075
 2883POPC   C3A32170  31.389  22.158   4.431
 2883POPC   C4A32171  31.859  22.039   4.647
 2883POPC   C1B32172  30.372  21.389   3.902
 2883POPC   C2B32173  30.366  21.314   4.320
 2883POPC   C3B32174  30.115  21.477   4.653
 2883POPC   C4B32175  29.719  21.601   4.970
 2884POPC   NC332176  25.755  21.029   3.271
 2884POPC   PO432177  26.076  20.781   3.273
 2884POPC   GL132178  26.108  20.814   3.628
 2884POPC   GL232179  26.319  20.885   3.772
 2884POPC   C1A32180  26.077  20.448   3.892
 2884POPC   D2A32181  25.947  20.410   4.356
 2884POPC   C3A32182  25.916  20.484   4.733
 2884POPC   C4A32183  25.983  20.090   5.070
 2884POPC   C1B32184  26.478  21.113   4.005
 2884POPC   C2B32185  26.592  21.154   4.393
 2884POPC   C3B32186  26.674  21.189   4.908
 2884POPC   C4B32187  26.695  21.082   5.350
 2885POPC   NC332188  28.578  34.880   3.065
 2885POPC   PO432189  28.434  34.640   3.314
 2885POPC   GL132190  28.559  34.782   3.603
 2885POPC   GL232191  28.771  34.569   3.720
 2885POPC   C1A32192  28.719  35.064   3.891
 2885POPC   D2A32193  28.731  35.496   4.250
 2885POPC   C3A32194  28.569  35.692   4.643
 2885POPC   C4A32195  28.491  35.631   5.129
 2885POPC   C1B32196  28.779  34.481   4.073
 2885POPC   C2B32197  28.911  34.503   4.494
 2885POPC   C3B32198  29.034  34.774   4.849
 2885POPC   C4B32199  29.264  35.185   5.049
 2886POPC   NC332200   1.330   3.188   2.746
 2886POPC   PO432201   1.359   3.115   3.135
 2886POPC   GL132202   1.181   3.388   3.456
 2886POPC   GL232203   0.985   3.275   3.453
 2886POPC   C1A32204   1.285   3.539   3.906
 2886POPC   D2A32205   1.182   3.619   4.404
 2886POPC   C3A32206   1.334   3.725   4.829
 2886POPC   C4A32207   1.543   4.005   5.219
 2886POPC   C1B32208   0.916   3.195   3.834
 2886POPC   C2B32209   0.897   3.087   4.214
 2886POPC   C3B32210   0.694   2.687   4.316
 2886POPC   C4B32211   0.471   2.519   4.765
 2887POPC   NC332212  33.803  14.670   3.278
 2887POPC   PO432213  34.060  14.530   3.567
 2887POPC   GL132214  34.016  14.427   4.029
 2887POPC   GL232215  34.272  14.551   4.009
 2887POPC   C1A32216  33.891  14.194   4.392
 2887POPC   D2A32217  33.580  13.932   4.695
 2887POPC   C3A32218  33.726  13.622   5.001
 2887POPC   C4A32219  34.080  13.313   5.183
 2887POPC   C1B32220  34.272  14.590   4.381
 2887POPC   C2B32221  34.224  14.521   4.812
 2887POPC   C3B32222  34.115  14.662   5.258
 2887POPC   C4B32223  33.948  14.472   5.692
 2888POPC   NC332224  26.061   7.309   3.476
 2888POPC   PO432225  25.673   7.454   3.422
 2888POPC   GL132226  25.375   7.454   3.809
 2888POPC   GL232227  25.636   7.571   3.961
 2888POPC   C1A32228  25.147   7.313   4.164
 2888POPC   D2A32229  25.266   7.112   4.588
 2888POPC   C3A32230  25.243   6.679   4.879
 2888POPC   C4A32231  25.342   6.437   5.336
 2888POPC   C1B32232  25.586   7.446   4.302
 2888POPC   C2B32233  25.762   7.214   4.605
 2888POPC   C3B32234  25.752   6.981   5.045
 2888POPC   C4B32235  25.633   6.868   5.552
 2889POPC   NC332236  19.764  34.785   3.146
 2889POPC   PO432237  19.488  35.052   3.267
 2889POPC   GL132238  19.673  35.042   3.705
 2889POPC   GL232239  19.376  34.962   3.813
 2889POPC   C1A32240  19.817  35.164   4.132
 2889POPC   D2A32241  20.116  35.185   4.474
 2889POPC   C3A32242  20.079  35.270   4.940
 2889POPC   C4A32243  20.290  35.582   5.296
 2889POPC   C1B32244  19.344  34.991   4.178
 2889POPC   C2B32245  19.143  35.059   4.570
 2889POPC   C3B32246  19.298  35.199   4.998
 2889POPC   C4B32247  19.553  35.395   5.299
 2890POPC   NC332248   5.779   9.194   3.398
 2890POPC   PO432249   5.513   9.306   3.669
 2890POPC   GL132250   5.582   9.337   4.086
 2890POPC   GL232251   5.400   9.640   4.089
 2890POPC   C1A32252   5.945   9.483   4.323
 2890POPC   D2A32253   6.063   9.629   4.802
 2890POPC   C3A32254   6.155   9.402   5.187
 2890POPC   C4A32255   6.550   9.104   5.147
 2890POPC   C1B32256   5.397   9.666   4.421
 2890POPC   C2B32257   5.296   9.698   4.831
 2890POPC   C3B32258   5.237   9.945   5.304
 2890POPC   C4B32259   5.350  10.236   5.662
 2891POPC   NC332260   8.198  28.183   3.002
 2891POPC   PO432261   8.193  27.809   2.876
 2891POPC   GL132262   8.254  27.789   3.305
 2891POPC   GL232263   8.246  27.566   3.408
 2891POPC   C1A32264   8.409  28.051   3.601
 2891POPC   D2A32265   8.062  27.965   3.930
 2891POPC   C3A32266   7.902  27.883   4.397
 2891POPC   C4A32267   7.682  27.807   4.887
 2891POPC   C1B32268   8.080  27.502   3.735
 2891POPC   C2B32269   7.990  27.509   4.106
 2891POPC   C3B32270   7.610  27.366   4.354
 2891POPC   C4B32271   7.347  27.385   4.806
 2892POPC   NC332272  28.323  34.105   3.355
 2892POPC   PO432273  28.425  34.271   3.699
 2892POPC   GL132274  28.391  33.816   3.770
 2892POPC   GL232275  28.283  34.028   3.923
 2892POPC   C1A32276  28.265  33.510   4.010
 2892POPC   D2A32277  27.992  33.120   4.078
 2892POPC   C3A32278  28.084  33.107   3.661
 2892POPC   C4A32279  28.140  32.964   3.260
 2892POPC   C1B32280  28.134  33.875   4.261
 2892POPC   C2B32281  27.962  33.559   4.423
 2892POPC   C3B32282  27.548  33.614   4.678
 2892POPC   C4B32283  27.046  33.528   4.912
 2893POPC   NC332284  33.858  28.878   3.569
 2893POPC   PO432285  33.668  29.123   3.831
 2893POPC   GL132286  33.387  29.094   4.126
 2893POPC   GL232287  33.584  29.071   4.327
 2893POPC   C1A32288  33.281  29.421   4.412
 2893POPC   D2A32289  33.405  29.440   4.865
 2893POPC   C3A32290  33.330  29.513   5.304
 2893POPC   C4A32291  33.076  29.560   5.742
 2893POPC   C1B32292  33.632  29.034   4.706
 2893POPC   C2B32293  33.791  28.876   5.040
 2893POPC   C3B32294  34.005  28.969   5.453
 2893POPC   C4B32295  34.298  28.719   5.754
 2894POPC   NC332296  27.078  29.440   2.750
 2894POPC   PO432297  26.783  29.654   2.635
 2894POPC   GL132298  26.637  29.671   3.072
 2894POPC   GL232299  26.487  29.925   3.080
 2894POPC   C1A32300  26.966  29.775   3.425
 2894POPC   D2A32301  26.856  29.818   3.919
 2894POPC   C3A32302  26.970  29.739   4.342
 2894POPC   C4A32303  27.455  29.725   4.508
 2894POPC   C1B32304  26.443  30.002   3.471
 2894POPC   C2B32305  26.399  30.068   3.886
 2894POPC   C3B32306  26.392  29.985   4.363
 2894POPC   C4B32307  26.630  29.866   4.726
 2895POPC   NC332308  25.764   3.116   3.335
 2895POPC   PO432309  25.925   3.003   3.689
 2895POPC   GL132310  25.843   3.195   4.078
 2895POPC   GL232311  25.945   2.896   4.164
 2895POPC   C1A32312  25.646   3.407   4.446
 2895POPC   D2A32313  25.433   3.488   4.840
 2895POPC   C3A32314  25.174   3.881   4.963
 2895POPC   C4A32315  24.857   3.930   5.268
 2895POPC   C1B32316  25.830   2.743   4.482
 2895POPC   C2B32317  26.098   2.461   4.655
 2895POPC   C3B32318  26.237   2.059   4.826
 2895POPC   C4B32319  25.990   1.635   4.796
 2896POPC   NC332320  12.621  15.762   3.235
 2896POPC   PO432321  12.961  15.608   3.448
 2896POPC   GL132322  12.953  15.614   3.843
 2896POPC   GL232323  12.988  15.810   4.025
 2896POPC   C1A32324  12.953  15.370   4.180
 2896POPC   D2A32325  12.877  15.110   4.507
 2896POPC   C3A32326  12.738  15.208   4.903
 2896POPC   C4A32327  12.512  15.090   5.313
 2896POPC   C1B32328  13.055  15.796   4.374
 2896POPC   C2B32329  13.323  15.772   4.716
 2896POPC   C3B32330  13.363  15.922   5.173
 2896POPC   C4B32331  13.235  15.607   5.518
 2897POPC   NC332332   6.989  35.930   2.839
 2897POPC   PO432333   7.290  36.147   2.991
 2897POPC   GL132334   7.222  36.012   3.393
 2897POPC   GL232335   7.458  36.161   3.495
 2897POPC   C1A32336   6.991  36.046   3.703
 2897POPC   D2A32337   6.686  35.988   4.077
 2897POPC   C3A32338   6.704  35.846   4.480
 2897POPC   C4A32339   6.700  35.784   4.982
 2897POPC   C1B32340   7.409  36.196   3.859
 2897POPC   C2B32341   7.210  36.254   4.241
 2897POPC   C3B32342   7.042  36.241   4.678
 2897POPC   C4B32343   6.781  36.378   5.091
 2898POPC   NC332344  17.873  28.342   3.357
 2898POPC   PO432345  18.187  28.139   3.414
 2898POPC   GL132346  18.295  27.991   3.845
 2898POPC   GL232347  18.526  27.949   3.841
 2898POPC   C1A32348  18.071  28.181   4.184
 2898POPC   D2A32349  17.697  28.451   4.375
 2898POPC   C3A32350  17.409  28.464   4.789
 2898POPC   C4A32351  17.242  28.327   5.218
 2898POPC   C1B32352  18.686  28.016   4.179
 2898POPC   C2B32353  18.885  28.199   4.551
 2898POPC   C3B32354  18.916  28.404   4.992
 2898POPC   C4B32355  18.611  28.408   5.318
 2899POPC   NC332356  17.326  24.362   3.672
 2899POPC   PO432357  17.613  24.558   3.848
 2899POPC   GL132358  17.648  24.328   4.175
 2899POPC   GL232359  17.869  24.555   4.286
 2899POPC   C1A32360  17.621  24.011   4.470
 2899POPC   D2A32361  17.274  23.846   4.689
 2899POPC   C3A32362  17.078  23.830   5.106
 2899POPC   C4A32363  16.807  23.837   5.490
 2899POPC   C1B32364  17.894  24.464   4.639
 2899POPC   C2B32365  18.169  24.504   4.935
 2899POPC   C3B32366  18.501  24.581   5.225
 2899POPC   C4B32367  18.948  24.558   5.407
 2900POPC   NC332368  24.489  14.413   3.653
 2900POPC   PO432369  24.173  14.344   3.877
 2900POPC   GL132370  24.065  14.458   4.272
 2900POPC   GL232371  24.247  14.258   4.319
 2900POPC   C1A32372  24.002  14.545   4.714
 2900POPC   D2A32373  23.833  14.531   5.172
 2900POPC   C3A32374  23.731  14.904   5.396
 2900POPC   C4A32375  23.250  15.101   5.370
 2900POPC   C1B32376  24.215  14.179   4.662
 2900POPC   C2B32377  24.254  14.335   5.053
 2900POPC   C3B32378  24.207  14.333   5.486
 2900POPC   C4B32379  24.017  14.129   5.862
 2901POPC   NC332380  22.190  11.308   3.957
 2901POPC   PO432381  22.414  11.021   3.783
 2901POPC   GL132382  22.519  10.961   4.178
 2901POPC   GL232383  22.361  10.710   4.134
 2901POPC   C1A32384  22.872  10.790   4.413
 2901POPC   D2A32385  23.184  10.799   4.826
 2901POPC   C3A32386  23.465  10.936   5.086
 2901POPC   C4A32387  23.301  11.190   5.501
 2901POPC   C1B32388  22.214  10.599   4.432
 2901POPC   C2B32389  22.204  10.404   4.817
 2901POPC   C3B32390  22.194  10.024   5.128
 2901POPC   C4B32391  22.261   9.565   5.310
 2902POPC   NC332392  34.932  23.159   3.689
 2902POPC   PO432393  34.631  23.306   3.842
 2902POPC   GL132394  34.649  23.129   4.230
 2902POPC   GL232395  34.785  23.182   4.380
 2902POPC   C1A32396  34.490  22.712   4.212
 2902POPC   D2A32397  34.469  22.222   4.347
 2902POPC   C3A32398  34.314  22.217   4.723
 2902POPC   C4A32399  33.987  21.901   4.871
 2902POPC   C1B32400  34.776  23.089   4.678
 2902POPC   C2B32401  34.832  22.958   5.076
 2902POPC   C3B32402  34.736  22.936   5.559
 2902POPC   C4B32403  34.786  22.816   6.011
 2903POPC   NC332404  19.891   0.862   3.398
 2903POPC   PO432405  19.982   1.015   3.785
 2903POPC   GL132406  19.754   1.043   4.184
 2903POPC   GL232407  19.888   1.173   4.386
 2903POPC   C1A32408  19.466   0.797   4.332
 2903POPC   D2A32409  19.263   0.476   4.659
 2903POPC   C3A32410  19.145   0.348   5.110
 2903POPC   C4A32411  19.497   0.189   5.384
 2903POPC   C1B32412  19.766   1.286   4.746
 2903POPC   C2B32413  19.376   1.341   4.937
 2903POPC   C3B32414  18.921   1.184   5.152
 2903POPC   C4B32415  18.697   0.957   5.514
 2904POPC   NC332416   2.432   5.381   3.194
 2904POPC   PO432417   2.629   5.722   3.280
 2904POPC   GL132418   2.577   5.984   3.598
 2904POPC   GL232419   2.251   5.978   3.562
 2904POPC   C1A32420   2.690   6.233   3.996
 2904POPC   D2A32421   2.346   6.311   4.397
 2904POPC   C3A32422   2.095   6.356   4.791
 2904POPC   C4A32423   1.618   6.491   5.044
 2904POPC   C1B32424   2.063   5.723   3.635
 2904POPC   C2B32425   1.777   5.504   3.869
 2904POPC   C3B32426   1.725   5.451   4.283
 2904POPC   C4B32427   1.752   5.486   4.715
 2905POPC   NC332428  16.084  21.519   3.698
 2905POPC   PO432429  15.790  21.709   3.479
 2905POPC   GL132430  15.532  21.654   3.786
 2905POPC   GL232431  15.729  21.622   3.929
 2905POPC   C1A32432  15.252  21.846   4.074
 2905POPC   D2A32433  15.108  21.743   4.528
 2905POPC   C3A32434  14.847  21.805   4.893
 2905POPC   C4A32435  14.920  22.036   5.335
 2905POPC   C1B32436  15.660  21.396   4.228
 2905POPC   C2B32437  15.446  21.343   4.554
 2905POPC   C3B32438  15.171  21.128   4.850
 2905POPC   C4B32439  14.927  20.790   5.103
 2906POPC   NC332440  10.954   6.885   3.308
 2906POPC   PO432441  11.318   6.697   3.273
 2906POPC   GL132442  11.461   6.889   3.575
 2906POPC   GL232443  11.331   7.136   3.528
 2906POPC   C1A32444  11.438   6.895   3.991
 2906POPC   D2A32445  11.142   6.912   4.355
 2906POPC   C3A32446  11.425   7.219   4.630
 2906POPC   C4A32447  11.812   7.464   4.662
 2906POPC   C1B32448  11.407   7.394   3.754
 2906POPC   C2B32449  11.460   7.414   4.183
 2906POPC   C3B32450  11.250   7.704   4.552
 2906POPC   C4B32451  10.920   7.978   4.802
 2907POPC   NC332452  25.570  15.274   3.531
 2907POPC   PO432453  25.391  15.598   3.606
 2907POPC   GL132454  25.256  15.651   3.981
 2907POPC   GL232455  25.217  15.911   3.945
 2907POPC   C1A32456  25.296  15.736   4.368
 2907POPC   D2A32457  25.299  15.767   4.880
 2907POPC   C3A32458  25.310  15.945   5.254
 2907POPC   C4A32459  25.300  15.894   5.730
 2907POPC   C1B32460  24.975  16.027   4.222
 2907POPC   C2B32461  24.886  16.088   4.619
 2907POPC   C3B32462  24.881  16.110   5.053
 2907POPC   C4B32463  24.858  15.927   5.497
 2908POPC   NC332464  34.545  15.907   4.419
 2908POPC   PO432465  34.733  15.776   4.089
 2908POPC   GL132466  35.112  15.740   4.223
 2908POPC   GL232467  35.232  16.012   4.256
 2908POPC   C1A32468  35.100  15.574   4.608
 2908POPC   D2A32469  35.112  15.457   5.073
 2908POPC   C3A32470  34.920  15.730   5.376
 2908POPC   C4A32471  34.544  16.020   5.440
 2908POPC   C1B32472  35.444  16.053   4.602
 2908POPC   C2B32473  35.582  15.827   4.916
 2908POPC   C3B32474  35.506  15.749   5.373
 2908POPC   C4B32475  35.293  15.832   5.849
 2909POPC   NC332476  16.625  11.900   2.791
 2909POPC   PO432477  16.403  11.837   3.087
 2909POPC   GL132478  16.508  11.970   3.528
 2909POPC   GL232479  16.188  11.870   3.634
 2909POPC   C1A32480  16.581  12.153   3.947
 2909POPC   D2A32481  16.435  12.356   4.400
 2909POPC   C3A32482  16.430  12.171   4.862
 2909POPC   C4A32483  16.505  11.876   5.252
 2909POPC   C1B32484  16.092  11.793   4.009
 2909POPC   C2B32485  16.050  11.742   4.419
 2909POPC   C3B32486  16.046  11.840   4.903
 2909POPC   C4B32487  16.022  11.916   5.391
 2910POPC   NC332488  26.492  33.027   2.818
 2910POPC   PO432489  26.703  32.882   3.119
 2910POPC   GL132490  26.534  32.941   3.469
 2910POPC   GL232491  26.654  32.713   3.607
 2910POPC   C1A32492  26.341  33.147   3.806
 2910POPC   D2A32493  26.247  33.208   4.283
 2910POPC   C3A32494  26.463  33.277   4.636
 2910POPC   C4A32495  26.783  33.137   5.012
 2910POPC   C1B32496  26.701  32.758   4.000
 2910POPC   C2B32497  26.644  32.828   4.443
 2910POPC   C3B32498  26.726  32.645   4.851
 2910POPC   C4B32499  26.941  32.585   5.248
 2911POPC   NC332500  24.341  12.478   3.505
 2911POPC   PO432501  24.216  12.746   3.822
 2911POPC   GL132502  24.432  12.996   4.066
 2911POPC   GL232503  24.426  13.244   4.049
 2911POPC   C1A32504  24.536  12.947   4.466
 2911POPC   D2A32505  24.530  13.042   4.925
 2911POPC   C3A32506  24.563  12.755   5.281
 2911POPC   C4A32507  24.604  12.253   5.433
 2911POPC   C1B32508  24.712  13.353   4.267
 2911POPC   C2B32509  24.858  13.401   4.641
 2911POPC   C3B32510  24.951  13.451   5.074
 2911POPC   C4B32511  25.054  13.694   5.569
 2912POPC   NC332512  17.671  26.219   3.093
 2912POPC   PO432513  17.471  26.506   3.269
 2912POPC   GL132514  17.486  26.657   3.625
 2912POPC   GL232515  17.491  26.276   3.713
 2912POPC   C1A32516  17.101  26.745   3.754
 2912POPC   D2A32517  16.811  26.865   4.162
 2912POPC   C3A32518  17.074  26.705   4.528
 2912POPC   C4A32519  17.297  26.455   4.844
 2912POPC   C1B32520  17.562  26.240   4.063
 2912POPC   C2B32521  17.418  26.188   4.423
 2912POPC   C3B32522  17.351  25.886   4.734
 2912POPC   C4B32523  17.217  26.083   5.213
 2913POPC   NC332524   0.126   4.837   3.477
 2913POPC   PO432525  -0.212   4.667   3.442
 2913POPC   GL132526  -0.251   4.492   3.799
 2913POPC   GL232527  -0.266   4.230   3.812
 2913POPC   C1A32528  -0.517   4.568   4.126
 2913POPC   D2A32529  -0.966   4.686   4.243
 2913POPC   C3A32530  -0.820   4.823   4.617
 2913POPC   C4A32531  -0.787   4.737   5.139
 2913POPC   C1B32532  -0.292   4.049   4.120
 2913POPC   C2B32533  -0.265   3.865   4.522
 2913POPC   C3B32534  -0.380   3.920   4.968
 2913POPC   C4B32535  -0.556   3.677   5.364
 2914POPC   NC332536   0.018  20.526   3.766
 2914POPC   PO432537   0.273  20.218   3.907
 2914POPC   GL132538   0.464  20.107   4.314
 2914POPC   GL232539   0.664  20.331   4.271
 2914POPC   C1A32540   0.337  20.040   4.713
 2914POPC   D2A32541   0.363  20.343   5.140
 2914POPC   C3A32542   0.489  19.943   5.425
 2914POPC   C4A32543   0.768  20.024   5.863
 2914POPC   C1B32544   0.723  20.472   4.587
 2914POPC   C2B32545   0.759  20.613   4.959
 2914POPC   C3B32546   0.893  20.827   5.385
 2914POPC   C4B32547   0.852  21.061   5.805
 2915POPC   NC332548   3.058  13.003   4.348
 2915POPC   PO432549   2.771  13.303   4.279
 2915POPC   GL132550   2.615  13.427   4.665
 2915POPC   GL232551   2.607  13.666   4.633
 2915POPC   C1A32552   2.444  13.393   5.081
 2915POPC   D2A32553   2.736  13.253   5.420
 2915POPC   C3A32554   2.838  13.290   5.883
 2915POPC   C4A32555   2.727  13.721   6.065
 2915POPC   C1B32556   2.360  13.822   4.834
 2915POPC   C2B32557   2.285  13.921   5.217
 2915POPC   C3B32558   2.158  14.008   5.671
 2915POPC   C4B32559   1.926  13.632   5.949
 2916POPC   NC332560  21.424   9.383   3.624
 2916POPC   PO432561  21.264   9.173   3.355
 2916POPC   GL132562  21.161   8.806   3.542
 2916POPC   GL232563  21.369   8.856   3.679
 2916POPC   C1A32564  20.784   8.679   3.709
 2916POPC   D2A32565  20.477   8.735   4.085
 2916POPC   C3A32566  20.542   8.613   4.496
 2916POPC   C4A32567  20.836   8.524   4.903
 2916POPC   C1B32568  21.377   9.061   4.040
 2916POPC   C2B32569  21.128   9.250   4.337
 2916POPC   C3B32570  21.089   9.362   4.781
 2916POPC   C4B32571  21.292   9.413   5.270
 2917POPC   NC332572  12.196  17.621   2.595
 2917POPC   PO432573  12.027  17.557   2.908
 2917POPC   GL132574  12.201  17.631   3.316
 2917POPC   GL232575  11.998  17.666   3.424
 2917POPC   C1A32576  12.466  17.403   3.611
 2917POPC   D2A32577  12.956  17.370   3.780
 2917POPC   C3A32578  13.172  17.342   4.190
 2917POPC   C4A32579  13.435  17.327   4.626
 2917POPC   C1B32580  12.048  17.555   3.756
 2917POPC   C2B32581  12.083  17.369   4.122
 2917POPC   C3B32582  11.969  17.347   4.605
 2917POPC   C4B32583  12.018  17.537   5.066
 2918POPC   NC332584  20.327  24.918   3.941
 2918POPC   PO432585  20.296  24.532   3.715
 2918POPC   GL132586  20.099  24.245   4.123
 2918POPC   GL232587  20.173  24.484   4.159
 2918POPC   C1A32588  19.724  24.103   4.187
 2918POPC   D2A32589  19.662  23.762   4.496
 2918POPC   C3A32590  19.947  23.625   4.845
 2918POPC   C4A32591  20.014  23.250   5.173
 2918POPC   C1B32592  20.137  24.525   4.554
 2918POPC   C2B32593  20.294  24.450   4.953
 2918POPC   C3B32594  20.332  24.299   5.363
 2918POPC   C4B32595  20.391  23.970   5.686
 2919POPC   NC332596   9.118  12.023   3.119
 2919POPC   PO432597   9.461  11.811   3.131
 2919POPC   GL132598   9.441  11.832   3.450
 2919POPC   GL232599   9.354  12.164   3.481
 2919POPC   C1A32600   9.618  11.824   3.802
 2919POPC   D2A32601   9.810  11.775   4.206
 2919POPC   C3A32602   9.809  11.424   4.550
 2919POPC   C4A32603   9.683  11.288   4.973
 2919POPC   C1B32604   9.156  12.417   3.718
 2919POPC   C2B32605   9.160  12.545   4.110
 2919POPC   C3B32606   9.201  12.347   4.538
 2919POPC   C4B32607   8.921  12.044   4.822
 2920POPC   NC332608  10.742  19.231   2.765
 2920POPC   PO432609  10.599  19.302   3.130
 2920POPC   GL132610  10.641  19.183   3.441
 2920POPC   GL232611  10.350  19.141   3.544
 2920POPC   C1A32612  10.936  19.394   3.689
 2920POPC   D2A32613  11.099  19.851   3.829
 2920POPC   C3A32614  11.263  19.986   4.278
 2920POPC   C4A32615  11.050  20.306   4.658
 2920POPC   C1B32616  10.430  19.415   3.733
 2920POPC   C2B32617  10.584  19.536   4.093
 2920POPC   C3B32618  10.295  19.955   4.171
 2920POPC   C4B32619   9.944  20.272   4.384
 2921POPC   NC332620  35.169  29.673   3.229
 2921POPC   PO432621  35.037  29.411   3.513
 2921POPC   GL132622  35.145  29.464   3.928
 2921POPC   GL232623  34.922  29.224   4.002
 2921POPC   C1A32624  35.386  29.580   4.213
 2921POPC   D2A32625  35.465  29.948   4.568
 2921POPC   C3A32626  35.486  29.943   4.971
 2921POPC   C4A32627  35.599  30.289   5.245
 2921POPC   C1B32628  34.820  29.123   4.326
 2921POPC   C2B32629  34.883  28.969   4.720
 2921POPC   C3B32630  34.997  28.911   5.183
 2921POPC   C4B32631  35.454  28.919   5.343
 2922POPC   NC332632  16.791   3.099   3.440
 2922POPC   PO432633  16.556   3.422   3.303
 2922POPC   GL132634  16.206   3.298   3.632
 2922POPC   GL232635  16.171   3.607   3.716
 2922POPC   C1A32636  15.986   3.146   3.890
 2922POPC   D2A32637  16.008   2.792   4.258
 2922POPC   C3A32638  15.690   2.714   4.539
 2922POPC   C4A32639  15.331   2.410   4.601
 2922POPC   C1B32640  15.994   3.608   4.040
 2922POPC   C2B32641  15.947   3.621   4.433
 2922POPC   C3B32642  15.935   3.550   4.893
 2922POPC   C4B32643  15.937   3.502   5.400
 2923POPC   NC332644  22.547  34.597   3.032
 2923POPC   PO432645  22.701  34.865   3.282
 2923POPC   GL132646  22.463  35.017   3.554
 2923POPC   GL232647  22.328  34.720   3.591
 2923POPC   C1A32648  22.423  35.413   3.805
 2923POPC   D2A32649  22.497  35.687   4.209
 2923POPC   C3A32650  22.680  35.824   4.610
 2923POPC   C4A32651  22.979  35.897   4.997
 2923POPC   C1B32652  22.497  34.595   3.911
 2923POPC   C2B32653  22.542  34.535   4.277
 2923POPC   C3B32654  22.513  34.588   4.737
 2923POPC   C4B32655  22.898  34.584   5.057
 2924POPC   NC332656  22.460  18.610   3.942
 2924POPC   PO432657  22.316  18.246   3.973
 2924POPC   GL132658  22.105  18.250   4.330
 2924POPC   GL232659  22.184  18.533   4.361
 2924POPC   C1A32660  22.192  18.197   4.759
 2924POPC   D2A32661  22.186  18.083   5.242
 2924POPC   C3A32662  22.220  18.287   5.663
 2924POPC   C4A32663  22.198  18.576   6.056
 2924POPC   C1B32664  22.040  18.669   4.656
 2924POPC   C2B32665  21.996  18.904   4.991
 2924POPC   C3B32666  21.882  19.217   5.337
 2924POPC   C4B32667  21.970  19.409   5.694
 2925POPC   NC332668  12.832   8.509   3.582
 2925POPC   PO432669  13.203   8.319   3.499
 2925POPC   GL132670  13.613   8.305   3.790
 2925POPC   GL232671  13.318   8.246   3.893
 2925POPC   C1A32672  13.938   8.283   4.064
 2925POPC   D2A32673  14.249   8.199   4.458
 2925POPC   C3A32674  14.451   8.270   4.901
 2925POPC   C4A32675  14.677   8.022   5.163
 2925POPC   C1B32676  13.062   8.510   3.989
 2925POPC   C2B32677  12.699   8.638   4.030
 2925POPC   C3B32678  12.499   9.051   4.084
 2925POPC   C4B32679  12.270   9.431   4.243
 2926POPC   NC332680   5.200  28.819   3.023
 2926POPC   PO432681   5.238  29.107   3.276
 2926POPC   GL132682   5.244  28.897   3.591
 2926POPC   GL232683   5.483  28.674   3.488
 2926POPC   C1A32684   5.408  28.853   3.986
 2926POPC   D2A32685   5.449  28.983   4.519
 2926POPC   C3A32686   5.103  28.990   4.775
 2926POPC   C4A32687   4.670  28.864   4.968
 2926POPC   C1B32688   5.544  28.444   3.781
 2926POPC   C2B32689   5.441  28.380   4.169
 2926POPC   C3B32690   5.461  28.445   4.710
 2926POPC   C4B32691   5.779  28.540   5.045
 2927POPC   NC332692  12.873  16.079   3.723
 2927POPC   PO432693  13.027  16.437   3.839
 2927POPC   GL132694  12.807  16.485   4.161
 2927POPC   GL232695  12.781  16.192   4.159
 2927POPC   C1A32696  12.904  16.569   4.543
 2927POPC   D2A32697  13.007  16.765   4.995
 2927POPC   C3A32698  12.839  17.026   5.345
 2927POPC   C4A32699  13.282  17.097   5.530
 2927POPC   C1B32700  12.709  16.094   4.537
 2927POPC   C2B32701  12.836  15.869   4.884
 2927POPC   C3B32702  12.760  15.537   5.301
 2927POPC   C4B32703  12.595  15.356   5.714
 2928POPC   NC332704   3.593  10.821   3.696
 2928POPC   PO432705   4.013  10.736   3.656
 2928POPC   GL132706   4.023  10.700   4.014
 2928POPC   GL232707   3.832  10.490   4.061
 2928POPC   C1A32708   4.147  10.968   4.435
 2928POPC   D2A32709   4.316  11.140   4.826
 2928POPC   C3A32710   4.347  11.476   5.162
 2928POPC   C4A32711   4.735  11.495   5.481
 2928POPC   C1B32712   3.817  10.595   4.426
 2928POPC   C2B32713   4.024  10.597   4.797
 2928POPC   C3B32714   4.002  10.924   5.146
 2928POPC   C4B32715   4.329  11.078   5.531
 2929POPC   NC332716   9.131  19.816   3.148
 2929POPC   PO432717   8.942  19.545   2.926
 2929POPC   GL132718   9.021  19.328   3.315
 2929POPC   GL232719   8.647  19.466   3.292
 2929POPC   C1A32720   9.232  19.549   3.589
 2929POPC   D2A32721   9.525  19.864   3.664
 2929POPC   C3A32722   9.217  19.807   4.012
 2929POPC   C4A32723   9.002  20.030   4.392
 2929POPC   C1B32724   8.771  19.517   3.659
 2929POPC   C2B32725   8.694  19.804   3.938
 2929POPC   C3B32726   8.576  20.146   4.218
 2929POPC   C4B32727   8.670  20.256   4.691
 2930POPC   NC332728  12.095   4.006   3.508
 2930POPC   PO432729  11.971   4.381   3.419
 2930POPC   GL132730  11.801   4.635   3.668
 2930POPC   GL232731  12.109   4.565   3.823
 2930POPC   C1A32732  11.542   4.625   4.082
 2930POPC   D2A32733  11.683   4.686   4.562
 2930POPC   C3A32734  11.432   4.928   4.855
 2930POPC   C4A32735  11.125   5.173   5.044
 2930POPC   C1B32736  12.119   4.595   4.169
 2930POPC   C2B32737  12.192   4.658   4.594
 2930POPC   C3B32738  12.382   4.708   4.987
 2930POPC   C4B32739  12.412   4.955   5.386
 2931POPC   NC332740  14.881  35.539   3.246
 2931POPC   PO432741  15.246  35.496   3.144
 2931POPC   GL132742  15.455  35.312   3.530
 2931POPC   GL232743  15.468  35.571   3.624
 2931POPC   C1A32744  15.209  35.039   3.819
 2931POPC   D2A32745  15.594  34.919   4.104
 2931POPC   C3A32746  15.497  34.837   4.565
 2931POPC   C4A32747  15.675  34.713   4.970
 2931POPC   C1B32748  15.444  35.775   3.914
 2931POPC   C2B32749  15.512  35.874   4.287
 2931POPC   C3B32750  15.471  35.714   4.796
 2931POPC   C4B32751  15.479  35.212   4.910
 2932POPC   NC332752   2.362  27.188   3.932
 2932POPC   PO432753   1.996  27.339   4.019
 2932POPC   GL132754   1.844  27.381   4.346
 2932POPC   GL232755   1.575  27.237   4.337
 2932POPC   C1A32756   2.142  27.224   4.699
 2932POPC   D2A32757   2.248  27.290   5.198
 2932POPC   C3A32758   2.407  27.016   5.543
 2932POPC   C4A32759   2.592  26.826   5.960
 2932POPC   C1B32760   1.628  27.082   4.699
 2932POPC   C2B32761   1.791  27.082   5.077
 2932POPC   C3B32762   1.856  27.098   5.534
 2932POPC   C4B32763   1.998  27.082   6.008
 2933POPC   NC332764  21.679   3.843   3.250
 2933POPC   PO432765  21.385   3.563   3.286
 2933POPC   GL132766  21.187   3.828   3.611
 2933POPC   GL232767  21.343   4.004   3.516
 2933POPC   C1A32768  20.995   4.072   3.877
 2933POPC   D2A32769  20.707   4.310   4.265
 2933POPC   C3A32770  20.400   3.995   4.487
 2933POPC   C4A32771  19.960   3.927   4.686
 2933POPC   C1B32772  21.504   4.164   3.848
 2933POPC   C2B32773  21.345   4.228   4.247
 2933POPC   C3B32774  21.111   4.251   4.667
 2933POPC   C4B32775  20.783   4.324   5.045
 2934POPC   NC332776  28.520  32.046   3.225
 2934POPC   PO432777  28.487  31.634   3.255
 2934POPC   GL132778  28.207  31.462   3.354
 2934POPC   GL232779  28.106  31.776   3.511
 2934POPC   C1A32780  28.224  31.153   3.644
 2934POPC   D2A32781  28.156  30.860   4.033
 2934POPC   C3A32782  27.983  30.691   4.422
 2934POPC   C4A32783  28.032  31.052   4.787
 2934POPC   C1B32784  28.314  32.000   3.723
 2934POPC   C2B32785  28.400  32.165   4.060
 2934POPC   C3B32786  28.470  32.248   4.511
 2934POPC   C4B32787  28.600  32.348   4.918
 2935POPC   NC332788  33.725  22.346   3.817
 2935POPC   PO432789  33.389  22.402   3.659
 2935POPC   GL132790  33.180  22.356   4.030
 2935POPC   GL232791  33.091  22.636   3.940
 2935POPC   C1A32792  33.254  22.310   4.479
 2935POPC   D2A32793  33.329  22.540   4.945
 2935POPC   C3A32794  33.591  22.452   5.285
 2935POPC   C4A32795  33.602  22.154   5.678
 2935POPC   C1B32796  33.159  22.780   4.251
 2935POPC   C2B32797  33.027  22.763   4.652
 2935POPC   C3B32798  32.833  22.759   5.080
 2935POPC   C4B32799  32.865  22.709   5.599
 2936POPC   NC332800  20.452   1.787   3.436
 2936POPC   PO432801  20.405   2.171   3.512
 2936POPC   GL132802  20.375   2.152   3.901
 2936POPC   GL232803  20.294   1.855   3.908
 2936POPC   C1A32804  20.614   2.221   4.241
 2936POPC   D2A32805  20.940   2.090   4.544
 2936POPC   C3A32806  21.113   2.389   4.805
 2936POPC   C4A32807  21.498   2.602   4.688
 2936POPC   C1B32808  20.290   1.850   4.261
 2936POPC   C2B32809  20.379   2.016   4.665
 2936POPC   C3B32810  20.105   2.352   4.838
 2936POPC   C4B32811  19.927   2.334   5.276
 2937POPC   NC332812  15.069  25.052   3.244
 2937POPC   PO432813  14.830  24.734   3.266
 2937POPC   GL132814  14.825  24.719   3.695
 2937POPC   GL232815  15.128  24.786   3.645
 2937POPC   C1A32816  14.583  24.885   3.967
 2937POPC   D2A32817  14.537  24.635   4.342
 2937POPC   C3A32818  14.433  24.201   4.374
 2937POPC   C4A32819  14.411  23.958   4.801
 2937POPC   C1B32820  15.128  24.696   3.996
 2937POPC   C2B32821  15.055  24.648   4.452
 2937POPC   C3B32822  14.943  24.621   4.932
 2937POPC   C4B32823  14.908  24.602   5.399
 2938POPC   NC332824  25.192  25.092   3.398
 2938POPC   PO432825  24.883  25.228   3.493
 2938POPC   GL132826  24.848  25.204   3.859
 2938POPC   GL232827  25.124  25.181   3.864
 2938POPC   C1A32828  24.701  25.175   4.306
 2938POPC   D2A32829  24.617  25.102   4.742
 2938POPC   C3A32830  24.185  24.963   4.791
 2938POPC   C4A32831  23.811  25.022   5.136
 2938POPC   C1B32832  25.092  24.962   4.152
 2938POPC   C2B32833  25.016  24.787   4.514
 2938POPC   C3B32834  25.304  24.497   4.846
 2938POPC   C4B32835  25.565  24.315   5.234
 2939POPC   NC332836  28.111  17.864   3.065
 2939POPC   PO432837  28.128  17.522   3.237
 2939POPC   GL132838  28.261  17.641   3.611
 2939POPC   GL232839  28.249  17.498   3.879
 2939POPC   C1A32840  28.694  17.805   3.621
 2939POPC   D2A32841  28.985  18.053   3.921
 2939POPC   C3A32842  29.178  18.533   3.964
 2939POPC   C4A32843  29.046  18.915   4.185
 2939POPC   C1B32844  28.244  17.571   4.216
 2939POPC   C2B32845  28.376  17.784   4.572
 2939POPC   C3B32846  28.608  18.024   4.898
 2939POPC   C4B32847  28.637  18.404   5.200
 2940POPC   NC332848  16.561  25.369   3.388
 2940POPC   PO432849  16.319  25.225   3.575
 2940POPC   GL132850  16.424  24.924   3.861
 2940POPC   GL232851  16.113  24.897   3.922
 2940POPC   C1A32852  16.540  24.916   4.273
 2940POPC   D2A32853  16.611  25.038   4.769
 2940POPC   C3A32854  16.785  25.295   5.090
 2940POPC   C4A32855  16.817  25.745   5.189
 2940POPC   C1B32856  16.075  25.057   4.211
 2940POPC   C2B32857  16.113  25.230   4.536
 2940POPC   C3B32858  16.335  25.457   4.879
 2940POPC   C4B32859  16.309  25.927   4.971
 2941POPC   NC332860  12.182   4.740   2.901
 2941POPC   PO432861  12.132   5.125   3.002
 2941POPC   GL132862  11.932   5.250   3.429
 2941POPC   GL232863  11.938   5.581   3.395
 2941POPC   C1A32864  11.949   5.062   3.803
 2941POPC   D2A32865  12.017   5.012   4.263
 2941POPC   C3A32866  11.739   5.263   4.563
 2941POPC   C4A32867  11.532   5.674   4.736
 2941POPC   C1B32868  12.064   5.848   3.618
 2941POPC   C2B32869  11.976   5.989   4.055
 2941POPC   C3B32870  12.176   6.336   4.396
 2941POPC   C4B32871  12.077   6.348   4.853
 2942POPC   NC332872  18.273  30.090   3.487
 2942POPC   PO432873  17.893  30.162   3.340
 2942POPC   GL132874  17.672  29.981   3.624
 2942POPC   GL232875  17.823  29.869   3.811
 2942POPC   C1A32876  17.417  29.994   3.903
 2942POPC   D2A32877  17.176  29.743   4.218
 2942POPC   C3A32878  17.592  29.597   4.490
 2942POPC   C4A32879  17.615  29.350   4.954
 2942POPC   C1B32880  17.861  29.934   4.159
 2942POPC   C2B32881  17.721  30.109   4.490
 2942POPC   C3B32882  17.591  30.441   4.825
 2942POPC   C4B32883  17.703  30.831   5.090
 2943POPC   NC332884   9.792  19.682   2.789
 2943POPC   PO432885  10.115  19.745   3.026
 2943POPC   GL132886  10.354  19.643   3.373
 2943POPC   GL232887  10.554  19.777   3.336
 2943POPC   C1A32888  10.063  19.684   3.780
 2943POPC   D2A32889   9.816  19.958   4.063
 2943POPC   C3A32890   9.775  20.321   3.856
 2943POPC   C4A32891   9.803  20.587   3.426
 2943POPC   C1B32892  10.659  19.776   3.663
 2943POPC   C2B32893  10.717  20.069   3.953
 2943POPC   C3B32894  10.571  20.297   4.393
 2943POPC   C4B32895  10.243  20.514   4.672
 2944POPC   NC332896   7.740  13.033   3.294
 2944POPC   PO432897   7.743  13.370   3.407
 2944POPC   GL132898   8.093  13.434   3.728
 2944POPC   GL232899   8.033  13.676   3.762
 2944POPC   C1A32900   8.123  13.269   4.110
 2944POPC   D2A32901   8.073  13.083   4.570
 2944POPC   C3A32902   8.355  13.129   4.932
 2944POPC   C4A32903   8.590  13.255   5.339
 2944POPC   C1B32904   7.964  13.706   4.113
 2944POPC   C2B32905   7.946  13.506   4.476
 2944POPC   C3B32906   7.747  13.320   4.883
 2944POPC   C4B32907   7.413  13.211   5.239
 2945POPC   NC332908   1.939  26.566   3.741
 2945POPC   PO432909   2.127  26.761   4.018
 2945POPC   GL132910   1.836  26.848   4.265
 2945POPC   GL232911   2.032  26.783   4.515
 2945POPC   C1A32912   1.437  26.793   4.404
 2945POPC   D2A32913   1.184  26.801   4.850
 2945POPC   C3A32914   0.967  26.702   5.294
 2945POPC   C4A32915   0.810  26.209   5.268
 2945POPC   C1B32916   2.075  26.736   4.862
 2945POPC   C2B32917   2.148  26.769   5.227
 2945POPC   C3B32918   2.192  26.560   5.604
 2945POPC   C4B32919   2.322  26.424   6.049
 2946POPC   NC332920  20.846  18.568   3.098
 2946POPC   PO432921  20.945  18.269   3.370
 2946POPC   GL132922  21.061  18.383   3.715
 2946POPC   GL232923  20.828  18.414   3.854
 2946POPC   C1A32924  21.351  18.435   4.008
 2946POPC   D2A32925  21.693  18.466   4.341
 2946POPC   C3A32926  21.750  17.987   4.480
 2946POPC   C4A32927  21.752  17.463   4.417
 2946POPC   C1B32928  20.917  18.626   4.125
 2946POPC   C2B32929  21.187  18.650   4.436
 2946POPC   C3B32930  21.187  18.624   4.912
 2946POPC   C4B32931  20.954  18.696   5.323
 2947POPC   NC332932  22.784  24.174   3.262
 2947POPC   PO432933  22.455  24.175   3.031
 2947POPC   GL132934  22.429  24.575   3.222
 2947POPC   GL232935  22.453  24.452   3.444
 2947POPC   C1A32936  22.811  24.797   3.415
 2947POPC   D2A32937  23.007  24.842   3.901
 2947POPC   C3A32938  23.300  24.672   4.265
 2947POPC   C4A32939  23.407  24.295   4.467
 2947POPC   C1B32940  22.651  24.531   3.759
 2947POPC   C2B32941  22.558  24.709   4.124
 2947POPC   C3B32942  22.617  24.891   4.543
 2947POPC   C4B32943  22.784  24.981   5.000
 2948POPC   NC332944   6.292   5.616   3.572
 2948POPC   PO432945   6.131   5.953   3.715
 2948POPC   GL132946   6.328   6.360   3.744
 2948POPC   GL232947   6.529   6.370   3.907
 2948POPC   C1A32948   6.128   6.579   4.068
 2948POPC   D2A32949   6.175   6.593   4.516
 2948POPC   C3A32950   6.254   6.116   4.709
 2948POPC   C4A32951   6.455   6.114   5.174
 2948POPC   C1B32952   6.518   6.379   4.241
 2948POPC   C2B32953   6.686   6.443   4.603
 2948POPC   C3B32954   6.834   6.454   5.082
 2948POPC   C4B32955   7.080   6.332   5.515
 2949POPC   NC332956  15.794  15.313   3.534
 2949POPC   PO432957  15.881  15.689   3.435
 2949POPC   GL132958  16.249  15.648   3.654
 2949POPC   GL232959  16.261  15.339   3.639
 2949POPC   C1A32960  16.194  15.819   4.003
 2949POPC   D2A32961  15.935  15.603   4.435
 2949POPC   C3A32962  16.136  15.655   4.854
 2949POPC   C4A32963  16.518  15.904   5.007
 2949POPC   C1B32964  16.261  15.263   4.005
 2949POPC   C2B32965  16.210  15.190   4.413
 2949POPC   C3B32966  15.863  15.132   4.760
 2949POPC   C4B32967  15.902  14.752   5.089
 2950POPC   NC332968  18.695   3.545   4.012
 2950POPC   PO432969  18.919   3.218   3.866
 2950POPC   GL132970  19.058   3.024   4.219
 2950POPC   GL232971  19.190   2.988   4.052
 2950POPC   C1A32972  19.131   2.670   4.548
 2950POPC   D2A32973  19.442   2.456   4.854
 2950POPC   C3A32974  19.407   2.398   5.340
 2950POPC   C4A32975  19.607   2.599   5.716
 2950POPC   C1B32976  19.296   2.626   4.144
 2950POPC   C2B32977  19.588   2.408   4.333
 2950POPC   C3B32978  19.762   2.065   4.660
 2950POPC   C4B32979  20.068   1.884   5.009
 2951POPC   NC332980  14.769  18.184   3.346
 2951POPC   PO432981  14.898  18.124   3.668
 2951POPC   GL132982  14.688  18.261   4.007
 2951POPC   GL232983  14.927  18.357   4.087
 2951POPC   C1A32984  14.510  18.005   4.334
 2951POPC   D2A32985  14.287  17.899   4.769
 2951POPC   C3A32986  14.005  17.711   5.104
 2951POPC   C4A32987  13.815  17.706   5.560
 2951POPC   C1B32988  14.914  18.208   4.427
 2951POPC   C2B32989  14.856  18.084   4.791
 2951POPC   C3B32990  14.730  17.955   5.254
 2951POPC   C4B32991  14.671  18.119   5.653
 2952POPC   NC332992  35.791  30.832   3.866
 2952POPC   PO432993  35.951  30.979   4.211
 2952POPC   GL132994  36.152  30.812   4.505
 2952POPC   GL232995  36.176  31.070   4.645
 2952POPC   C1A32996  36.311  30.397   4.681
 2952POPC   D2A32997  36.575  30.273   5.060
 2952POPC   C3A32998  36.855  30.011   5.110
 2952POPC   C4A32999  37.176  29.628   5.103
 2952POPC   C1B33000  36.220  31.023   5.019
 2952POPC   C2B33001  36.206  30.629   5.213
 2952POPC   C3B33002  36.344  30.315   5.528
 2952POPC   C4B33003  36.716  29.886   5.599
 2953POPC   NC333004  12.465  17.836   2.973
 2953POPC   PO433005  12.513  18.029   3.316
 2953POPC   GL133006  12.625  17.835   3.741
 2953POPC   GL233007  12.823  18.011   3.725
 2953POPC   C1A33008  12.641  17.599   4.078
 2953POPC   D2A33009  12.618  17.544   4.565
 2953POPC   C3A33010  12.507  17.502   5.005
 2953POPC   C4A33011  12.375  17.256   5.350
 2953POPC   C1B33012  12.650  18.207   3.900
 2953POPC   C2B33013  12.444  18.366   4.246
 2953POPC   C3B33014  12.115  18.437   4.606
 2953POPC   C4B33015  11.701  18.535   4.881
 2954POPC   NC333016   3.562  33.285   3.509
 2954POPC   PO433017   3.599  33.024   3.807
 2954POPC   GL133018   3.693  33.203   4.203
 2954POPC   GL233019   3.897  32.988   4.264
 2954POPC   C1A33020   3.450  33.407   4.583
 2954POPC   D2A33021   3.325  33.337   5.065
 2954POPC   C3A33022   3.302  33.330   5.558
 2954POPC   C4A33023   3.195  33.467   6.039
 2954POPC   C1B33024   4.032  32.916   4.543
 2954POPC   C2B33025   3.938  32.737   4.919
 2954POPC   C3B33026   3.912  32.540   5.348
 2954POPC   C4B33027   3.945  32.347   5.861
 2955POPC   NC333028   4.147  12.497   3.950
 2955POPC   PO433029   3.987  12.755   4.209
 2955POPC   GL133030   4.193  12.827   4.448
 2955POPC   GL233031   4.183  13.117   4.508
 2955POPC   C1A33032   4.227  12.779   4.856
 2955POPC   D2A33033   4.230  12.730   5.327
 2955POPC   C3A33034   4.298  13.004   5.655
 2955POPC   C4A33035   4.034  13.351   5.951
 2955POPC   C1B33036   4.258  13.260   4.850
 2955POPC   C2B33037   4.334  13.280   5.218
 2955POPC   C3B33038   4.774  13.178   5.395
 2955POPC   C4B33039   5.118  13.302   5.769
 2956POPC   NC333040  19.903  15.204   2.904
 2956POPC   PO433041  19.761  15.443   3.190
 2956POPC   GL133042  19.709  15.204   3.543
 2956POPC   GL233043  19.897  14.979   3.391
 2956POPC   C1A33044  19.835  15.163   3.998
 2956POPC   D2A33045  20.020  15.502   4.273
 2956POPC   C3A33046  19.850  15.550   4.730
 2956POPC   C4A33047  19.395  15.467   4.932
 2956POPC   C1B33048  20.141  14.796   3.592
 2956POPC   C2B33049  20.425  14.722   3.891
 2956POPC   C3B33050  20.772  14.413   4.123
 2956POPC   C4B33051  21.141  14.145   4.206
 2957POPC   NC333052  30.817   2.295   3.296
 2957POPC   PO433053  31.055   1.938   3.256
 2957POPC   GL133054  31.082   1.635   3.457
 2957POPC   GL233055  31.034   1.615   3.744
 2957POPC   C1A33056  31.265   1.265   3.463
 2957POPC   D2A33057  31.492   1.070   3.824
 2957POPC   C3A33058  31.911   1.098   3.926
 2957POPC   C4A33059  31.941   1.141   4.408
 2957POPC   C1B33060  31.163   1.364   4.027
 2957POPC   C2B33061  31.119   1.247   4.417
 2957POPC   C3B33062  31.115   0.839   4.720
 2957POPC   C4B33063  31.219   0.660   5.202
 2958POPC   NC333064   3.671  30.933   3.501
 2958POPC   PO433065   3.989  30.956   3.253
 2958POPC   GL133066   4.324  30.735   3.513
 2958POPC   GL233067   3.975  30.738   3.716
 2958POPC   C1A33068   4.546  30.525   3.850
 2958POPC   D2A33069   4.581  30.001   3.955
 2958POPC   C3A33070   4.445  29.808   4.321
 2958POPC   C4A33071   4.493  29.818   4.888
 2958POPC   C1B33072   4.036  30.750   4.102
 2958POPC   C2B33073   4.077  30.784   4.502
 2958POPC   C3B33074   4.082  30.810   5.050
 2958POPC   C4B33075   4.194  30.917   5.544
 2959POPC   NC333076  16.178   4.620   3.535
 2959POPC   PO433077  16.218   4.226   3.580
 2959POPC   GL133078  16.509   4.142   3.925
 2959POPC   GL233079  16.300   4.078   3.979
 2959POPC   C1A33080  16.680   4.145   4.398
 2959POPC   D2A33081  16.418   4.441   4.751
 2959POPC   C3A33082  16.307   4.362   5.164
 2959POPC   C4A33083  16.426   4.374   5.651
 2959POPC   C1B33084  16.299   3.935   4.285
 2959POPC   C2B33085  16.363   3.812   4.678
 2959POPC   C3B33086  16.335   3.763   5.141
 2959POPC   C4B33087  16.387   3.773   5.620
 2960POPC   NC333088  11.184  10.647   3.181
 2960POPC   PO433089  11.516  10.842   3.314
 2960POPC   GL133090  11.875  11.033   3.402
 2960POPC   GL233091  11.879  10.808   3.609
 2960POPC   C1A33092  12.043  11.329   3.682
 2960POPC   D2A33093  12.194  11.207   4.113
 2960POPC   C3A33094  12.554  10.894   4.043
 2960POPC   C4A33095  12.840  10.528   4.192
 2960POPC   C1B33096  11.985  10.812   3.926
 2960POPC   C2B33097  12.032  10.744   4.338
 2960POPC   C3B33098  11.943  10.901   4.793
 2960POPC   C4B33099  11.950  11.101   5.254
 2961POPC   NC333100  27.305  19.785   3.115
 2961POPC   PO433101  27.618  19.987   3.225
 2961POPC   GL133102  27.529  20.078   3.586
 2961POPC   GL233103  27.753  19.878   3.691
 2961POPC   C1A33104  27.217  19.891   3.760
 2961POPC   D2A33105  27.101  19.618   4.135
 2961POPC   C3A33106  27.414  19.349   4.419
 2961POPC   C4A33107  27.622  19.123   4.826
 2961POPC   C1B33108  27.989  19.896   3.949
 2961POPC   C2B33109  28.074  20.258   4.200
 2961POPC   C3B33110  27.905  20.479   4.609
 2961POPC   C4B33111  27.788  20.564   5.040
 2962POPC   NC333112   7.928   5.516   3.385
 2962POPC   PO433113   8.260   5.653   3.464
 2962POPC   GL133114   8.371   5.563   3.827
 2962POPC   GL233115   8.121   5.697   3.889
 2962POPC   C1A33116   8.531   5.633   4.214
 2962POPC   D2A33117   8.515   5.579   4.727
 2962POPC   C3A33118   8.753   5.719   5.118
 2962POPC   C4A33119   9.044   5.815   5.504
 2962POPC   C1B33120   8.060   5.751   4.247
 2962POPC   C2B33121   8.098   5.781   4.685
 2962POPC   C3B33122   8.334   5.890   5.107
 2962POPC   C4B33123   8.440   5.905   5.541
 2963POPC   NC333124  19.856  16.084   3.164
 2963POPC   PO433125  19.796  15.923   3.504
 2963POPC   GL133126  19.931  15.543   3.667
 2963POPC   GL233127  19.872  15.724   3.913
 2963POPC   C1A33128  20.297  15.235   3.843
 2963POPC   D2A33129  20.783  15.147   3.942
 2963POPC   C3A33130  20.886  14.937   4.296
 2963POPC   C4A33131  20.898  14.510   4.635
 2963POPC   C1B33132  19.576  15.895   4.142
 2963POPC   C2B33133  19.157  15.897   4.294
 2963POPC   C3B33134  18.991  15.599   4.652
 2963POPC   C4B33135  18.886  15.369   5.093
 2964POPC   NC333136  13.411  28.252   3.453
 2964POPC   PO433137  13.793  28.341   3.405
 2964POPC   GL133138  14.167  28.164   3.625
 2964POPC   GL233139  14.139  28.556   3.692
 2964POPC   C1A33140  14.288  28.034   4.073
 2964POPC   D2A33141  14.270  28.160   4.582
 2964POPC   C3A33142  14.250  28.037   5.011
 2964POPC   C4A33143  14.404  27.745   5.296
 2964POPC   C1B33144  14.242  28.554   4.026
 2964POPC   C2B33145  14.294  28.616   4.415
 2964POPC   C3B33146  14.422  28.496   4.905
 2964POPC   C4B33147  14.392  28.407   5.396
 2965POPC   NC333148  26.602   7.216   3.418
 2965POPC   PO433149  26.652   6.876   3.618
 2965POPC   GL133150  26.916   6.925   3.939
 2965POPC   GL233151  27.136   6.713   3.850
 2965POPC   C1A33152  26.787   6.955   4.367
 2965POPC   D2A33153  26.689   6.826   4.824
 2965POPC   C3A33154  26.425   6.603   5.127
 2965POPC   C4A33155  26.420   6.560   5.633
 2965POPC   C1B33156  27.430   6.920   4.013
 2965POPC   C2B33157  27.346   6.647   4.336
 2965POPC   C3B33158  27.085   6.566   4.713
 2965POPC   C4B33159  26.994   6.514   5.186
 2966POPC   NC333160  12.979   0.502   3.039
 2966POPC   PO433161  12.931   0.141   3.174
 2966POPC   GL133162  12.644   0.216   3.343
 2966POPC   GL233163  12.747   0.449   3.468
 2966POPC   C1A33164  12.576  -0.129   3.587
 2966POPC   D2A33165  12.549  -0.487   3.923
 2966POPC   C3A33166  12.463  -0.569   4.383
 2966POPC   C4A33167  12.063  -0.822   4.609
 2966POPC   C1B33168  12.857   0.445   3.827
 2966POPC   C2B33169  12.807   0.495   4.227
 2966POPC   C3B33170  12.668   0.605   4.678
 2966POPC   C4B33171  12.824   0.677   5.116
 2967POPC   NC333172  31.577  30.349   3.631
 2967POPC   PO433173  31.335  30.021   3.515
 2967POPC   GL133174  31.219  30.055   3.883
 2967POPC   GL233175  31.144  29.762   3.907
 2967POPC   C1A33176  31.062  30.102   4.300
 2967POPC   D2A33177  30.945  29.883   4.784
 2967POPC   C3A33178  31.011  30.112   5.196
 2967POPC   C4A33179  31.133  29.964   5.661
 2967POPC   C1B33180  31.344  29.698   4.193
 2967POPC   C2B33181  31.613  29.922   4.381
 2967POPC   C3B33182  31.525  30.302   4.679
 2967POPC   C4B33183  31.065  30.378   4.775
 2968POPC   NC333184  30.124   7.901   3.517
 2968POPC   PO433185  30.311   8.204   3.379
 2968POPC   GL133186  30.341   8.430   3.684
 2968POPC   GL233187  30.016   8.313   3.686
 2968POPC   C1A33188  30.565   8.377   4.006
 2968POPC   D2A33189  30.826   8.003   4.278
 2968POPC   C3A33190  30.620   7.774   4.640
 2968POPC   C4A33191  30.812   7.719   5.089
 2968POPC   C1B33192  29.816   8.256   4.002
 2968POPC   C2B33193  29.779   8.230   4.417
 2968POPC   C3B33194  30.027   8.095   4.786
 2968POPC   C4B33195  30.359   7.851   5.068
 2969POPC   NC333196   2.769   3.079   2.977
 2969POPC   PO433197   2.794   2.755   3.225
 2969POPC   GL133198   2.856   2.681   3.599
 2969POPC   GL233199   2.782   2.391   3.655
 2969POPC   C1A33200   2.675   2.836   3.980
 2969POPC   D2A33201   2.570   2.784   4.498
 2969POPC   C3A33202   2.810   2.738   4.905
 2969POPC   C4A33203   2.880   2.397   5.213
 2969POPC   C1B33204   2.512   2.434   3.934
 2969POPC   C2B33205   2.361   2.459   4.242
 2969POPC   C3B33206   2.453   2.361   4.705
 2969POPC   C4B33207   2.331   2.194   5.093
 2970POPC   NC333208   6.003  35.979   3.275
 2970POPC   PO433209   5.622  35.831   3.324
 2970POPC   GL133210   5.613  35.712   3.725
 2970POPC   GL233211   5.862  35.661   3.775
 2970POPC   C1A33212   5.315  35.769   4.125
 2970POPC   D2A33213   5.048  36.080   4.463
 2970POPC   C3A33214   4.974  36.241   4.901
 2970POPC   C4A33215   4.932  36.211   5.369
 2970POPC   C1B33216   5.928  35.630   4.072
 2970POPC   C2B33217   5.717  35.626   4.441
 2970POPC   C3B33218   5.316  35.757   4.718
 2970POPC   C4B33219   5.199  35.862   5.093
 2971POPC   NC333220   4.903   3.951   3.837
 2971POPC   PO433221   4.848   4.091   3.469
 2971POPC   GL133222   5.293   4.283   3.491
 2971POPC   GL233223   5.128   4.497   3.511
 2971POPC   C1A33224   5.380   4.127   3.882
 2971POPC   D2A33225   5.686   4.117   4.307
 2971POPC   C3A33226   5.819   3.939   4.669
 2971POPC   C4A33227   5.839   3.635   5.091
 2971POPC   C1B33228   5.112   4.602   3.883
 2971POPC   C2B33229   5.057   4.710   4.272
 2971POPC   C3B33230   5.007   4.909   4.680
 2971POPC   C4B33231   5.025   5.091   5.104
 2972POPC   NC333232  19.356  24.845   3.634
 2972POPC   PO433233  19.079  24.560   3.711
 2972POPC   GL133234  19.270  24.523   4.149
 2972POPC   GL233235  19.009  24.663   4.241
 2972POPC   C1A33236  19.591  24.582   4.500
 2972POPC   D2A33237  19.806  24.542   4.964
 2972POPC   C3A33238  19.888  24.640   5.419
 2972POPC   C4A33239  19.832  24.672   5.878
 2972POPC   C1B33240  19.007  24.622   4.615
 2972POPC   C2B33241  19.255  24.529   4.908
 2972POPC   C3B33242  19.386  24.359   5.331
 2972POPC   C4B33243  19.588  24.215   5.770
 2973POPC   NC333244  14.424  12.654   3.342
 2973POPC   PO433245  14.712  12.491   3.532
 2973POPC   GL133246  14.668  12.461   3.882
 2973POPC   GL233247  14.370  12.397   4.011
 2973POPC   C1A33248  14.757  12.882   4.087
 2973POPC   D2A33249  14.892  13.035   4.591
 2973POPC   C3A33250  15.157  12.700   4.866
 2973POPC   C4A33251  15.275  12.322   5.212
 2973POPC   C1B33252  14.282  12.195   4.353
 2973POPC   C2B33253  14.168  12.350   4.700
 2973POPC   C3B33254  14.317  12.505   5.096
 2973POPC   C4B33255  14.651  12.904   4.987
 2974POPC   NC333256   5.481  12.850   3.200
 2974POPC   PO433257   5.557  12.632   3.515
 2974POPC   GL133258   5.450  12.482   3.806
 2974POPC   GL233259   5.373  12.729   3.965
 2974POPC   C1A33260   5.520  12.171   4.187
 2974POPC   D2A33261   5.594  11.970   4.569
 2974POPC   C3A33262   5.958  11.845   4.787
 2974POPC   C4A33263   6.344  11.656   4.936
 2974POPC   C1B33264   5.476  12.665   4.282
 2974POPC   C2B33265   5.680  12.568   4.640
 2974POPC   C3B33266   5.871  12.257   5.002
 2974POPC   C4B33267   5.774  11.978   5.369
 2975POPC   NC333268   5.754  10.738   3.477
 2975POPC   PO433269   5.714  11.128   3.426
 2975POPC   GL133270   5.982  11.370   3.714
 2975POPC   GL233271   5.720  11.465   3.770
 2975POPC   C1A33272   6.119  11.107   4.078
 2975POPC   D2A33273   6.246  11.044   4.517
 2975POPC   C3A33274   6.399  11.146   4.955
 2975POPC   C4A33275   6.250  11.024   5.430
 2975POPC   C1B33276   5.675  11.210   4.044
 2975POPC   C2B33277   5.723  10.993   4.389
 2975POPC   C3B33278   5.793  10.792   4.840
 2975POPC   C4B33279   5.840  10.406   5.195
 2976POPC   NC333280   5.018   9.588   3.754
 2976POPC   PO433281   5.099   9.987   3.776
 2976POPC   GL133282   5.003  10.012   4.172
 2976POPC   GL233283   4.903   9.722   4.222
 2976POPC   C1A33284   5.290  10.119   4.445
 2976POPC   D2A33285   5.441  10.267   4.920
 2976POPC   C3A33286   5.397  10.524   5.315
 2976POPC   C4A33287   5.339  10.873   5.643
 2976POPC   C1B33288   4.890   9.676   4.618
 2976POPC   C2B33289   4.851   9.602   4.977
 2976POPC   C3B33290   5.171   9.396   5.281
 2976POPC   C4B33291   5.427   9.232   5.728
 2977POPC   NC333292  19.717  28.397   3.827
 2977POPC   PO433293  19.659  28.809   3.829
 2977POPC   GL133294  19.911  29.020   4.153
 2977POPC   GL233295  19.895  28.771   4.301
 2977POPC   C1A33296  20.068  29.444   4.142
 2977POPC   D2A33297  20.393  29.712   4.412
 2977POPC   C3A33298  20.143  29.524   4.771
 2977POPC   C4A33299  20.169  29.196   5.102
 2977POPC   C1B33300  19.677  28.717   4.598
 2977POPC   C2B33301  19.820  28.800   4.998
 2977POPC   C3B33302  20.009  28.700   5.441
 2977POPC   C4B33303  20.284  28.261   5.538
 2978POPC   NC333304   9.947  21.018   3.187
 2978POPC   PO433305   9.608  21.169   3.042
 2978POPC   GL133306   9.166  21.350   3.159
 2978POPC   GL233307   9.362  21.465   3.265
 2978POPC   C1A33308   8.923  21.177   3.515
 2978POPC   D2A33309   8.578  21.266   3.833
 2978POPC   C3A33310   8.460  20.989   4.189
 2978POPC   C4A33311   8.347  20.707   4.596
 2978POPC   C1B33312   9.364  21.308   3.587
 2978POPC   C2B33313   9.466  21.210   3.985
 2978POPC   C3B33314   9.542  21.057   4.392
 2978POPC   C4B33315   9.268  21.094   4.812
 2979POPC   NC333316   7.612   2.856   3.321
 2979POPC   PO433317   7.925   3.103   3.380
 2979POPC   GL133318   8.173   3.044   3.738
 2979POPC   GL233319   7.932   2.900   3.882
 2979POPC   C1A33320   8.448   2.897   4.032
 2979POPC   D2A33321   8.809   3.269   4.217
 2979POPC   C3A33322   9.049   3.470   4.541
 2979POPC   C4A33323   9.209   3.541   5.056
 2979POPC   C1B33324   8.005   2.781   4.192
 2979POPC   C2B33325   8.317   2.739   4.502
 2979POPC   C3B33326   8.621   2.877   4.873
 2979POPC   C4B33327   9.012   3.000   5.151
 2980POPC   NC333328  20.312  30.901   3.825
 2980POPC   PO433329  19.951  30.765   3.729
 2980POPC   GL133330  19.965  30.565   4.143
 2980POPC   GL233331  19.649  30.590   4.058
 2980POPC   C1A33332  20.102  30.294   4.454
 2980POPC   D2A33333  20.186  30.100   4.825
 2980POPC   C3A33334  20.238  30.337   5.257
 2980POPC   C4A33335  20.182  30.314   5.733
 2980POPC   C1B33336  19.444  30.688   4.350
 2980POPC   C2B33337  19.294  30.650   4.714
 2980POPC   C3B33338  19.505  31.111   4.846
 2980POPC   C4B33339  19.854  31.387   4.744
 2981POPC   NC333340   2.933  26.508   3.728
 2981POPC   PO433341   2.642  26.787   3.711
 2981POPC   GL133342   2.855  26.834   4.175
 2981POPC   GL233343   2.764  26.527   4.194
 2981POPC   C1A33344   2.842  26.961   4.607
 2981POPC   D2A33345   2.603  27.001   5.016
 2981POPC   C3A33346   2.498  26.566   4.837
 2981POPC   C4A33347   2.330  26.161   4.954
 2981POPC   C1B33348   2.824  26.389   4.557
 2981POPC   C2B33349   2.971  26.301   4.881
 2981POPC   C3B33350   2.721  26.354   5.276
 2981POPC   C4B33351   2.597  26.214   5.672
 2982POPC   NC333352  14.891   2.740   3.436
 2982POPC   PO433353  14.583   2.567   3.351
 2982POPC   GL133354  14.347   2.506   3.688
 2982POPC   GL233355  14.532   2.285   3.659
 2982POPC   C1A33356  14.313   2.696   4.049
 2982POPC   D2A33357  14.564   2.388   4.278
 2982POPC   C3A33358  14.513   2.199   4.695
 2982POPC   C4A33359  14.660   2.076   5.120
 2982POPC   C1B33360  14.613   2.070   3.979
 2982POPC   C2B33361  14.666   1.842   4.284
 2982POPC   C3B33362  14.551   1.744   4.778
 2982POPC   C4B33363  14.365   1.526   5.201
 2983POPC   NC333364   4.674  20.619   3.259
 2983POPC   PO433365   4.585  20.230   3.238
 2983POPC   GL133366   4.717  19.944   3.559
 2983POPC   GL233367   4.472  19.787   3.500
 2983POPC   C1A33368   4.879  19.953   3.995
 2983POPC   D2A33369   5.103  20.046   4.413
 2983POPC   C3A33370   5.014  20.352   4.691
 2983POPC   C4A33371   4.624  20.462   5.024
 2983POPC   C1B33372   4.465  19.597   3.818
 2983POPC   C2B33373   4.441  19.590   4.180
 2983POPC   C3B33374   4.333  19.623   4.670
 2983POPC   C4B33375   4.076  19.523   5.015
 2984POPC   NC333376  11.268  18.454   2.614
 2984POPC   PO433377  11.542  18.466   2.926
 2984POPC   GL133378  11.514  18.475   3.397
 2984POPC   GL233379  11.378  18.187   3.352
 2984POPC   C1A33380  11.471  18.808   3.657
 2984POPC   D2A33381  11.243  19.119   3.974
 2984POPC   C3A33382  11.094  19.460   4.209
 2984POPC   C4A33383  10.792  19.865   4.426
 2984POPC   C1B33384  11.332  18.022   3.681
 2984POPC   C2B33385  11.245  18.119   4.102
 2984POPC   C3B33386  11.359  18.288   4.562
 2984POPC   C4B33387  11.209  18.647   4.912
 2985POPC   NC333388   3.819  35.949   3.262
 2985POPC   PO433389   3.636  36.265   3.415
 2985POPC   GL133390   3.623  36.428   3.741
 2985POPC   GL233391   3.382  36.393   3.853
 2985POPC   C1A33392   3.648  36.810   3.925
 2985POPC   D2A33393   3.956  36.879   4.309
 2985POPC   C3A33394   4.306  37.189   4.321
 2985POPC   C4A33395   4.598  37.330   4.666
 2985POPC   C1B33396   3.189  36.553   4.160
 2985POPC   C2B33397   3.217  36.656   4.541
 2985POPC   C3B33398   3.021  36.808   5.008
 2985POPC   C4B33399   2.915  36.914   5.491
 2986POPC   NC333400  15.179  31.109   3.288
 2986POPC   PO433401  14.872  31.057   3.489
 2986POPC   GL133402  14.711  31.166   3.824
 2986POPC   GL233403  14.669  30.952   3.934
 2986POPC   C1A33404  14.825  31.404   4.173
 2986POPC   D2A33405  15.076  31.615   4.540
 2986POPC   C3A33406  15.391  31.494   4.815
 2986POPC   C4A33407  15.598  31.013   4.888
 2986POPC   C1B33408  14.663  30.980   4.308
 2986POPC   C2B33409  14.628  31.206   4.655
 2986POPC   C3B33410  14.595  31.417   5.102
 2986POPC   C4B33411  14.813  31.624   5.453
 2987POPC   NC333412   8.312  31.504   3.389
 2987POPC   PO433413   8.660  31.368   3.424
 2987POPC   GL133414   8.759  31.400   3.827
 2987POPC   GL233415   9.026  31.248   3.785
 2987POPC   C1A33416   8.552  31.451   4.239
 2987POPC   D2A33417   8.284  31.465   4.620
 2987POPC   C3A33418   8.192  31.379   5.053
 2987POPC   C4A33419   7.911  31.766   5.294
 2987POPC   C1B33420   9.011  31.170   4.140
 2987POPC   C2B33421   8.938  31.218   4.542
 2987POPC   C3B33422   8.686  31.255   4.970
 2987POPC   C4B33423   8.494  31.065   5.424
 2988POPC   NC333424   5.221  17.989   3.080
 2988POPC   PO433425   4.858  18.147   3.115
 2988POPC   GL133426   4.647  18.029   3.560
 2988POPC   GL233427   4.978  18.054   3.559
 2988POPC   C1A33428   4.611  18.419   3.832
 2988POPC   D2A33429   4.966  18.845   3.864
 2988POPC   C3A33430   5.017  19.169   4.232
 2988POPC   C4A33431   4.900  19.590   4.438
 2988POPC   C1B33432   5.165  18.262   3.799
 2988POPC   C2B33433   5.033  18.309   4.181
 2988POPC   C3B33434   5.048  18.313   4.632
 2988POPC   C4B33435   5.159  18.326   5.120
 2989POPC   NC333436  16.417  17.558   3.586
 2989POPC   PO433437  16.757  17.397   3.479
 2989POPC   GL133438  16.691  17.038   3.671
 2989POPC   GL233439  16.580  17.204   3.877
 2989POPC   C1A33440  16.721  16.734   3.990
 2989POPC   D2A33441  16.797  16.490   4.436
 2989POPC   C3A33442  16.679  16.355   4.860
 2989POPC   C4A33443  16.554  16.342   5.345
 2989POPC   C1B33444  16.290  17.052   4.038
 2989POPC   C2B33445  16.058  16.874   4.299
 2989POPC   C3B33446  15.935  16.924   4.785
 2989POPC   C4B33447  16.082  17.065   5.228
 2990POPC   NC333448  18.055   1.574   3.432
 2990POPC   PO433449  17.990   1.917   3.333
 2990POPC   GL133450  18.044   1.988   3.734
 2990POPC   GL233451  17.792   2.191   3.721
 2990POPC   C1A33452  18.047   1.685   4.088
 2990POPC   D2A33453  18.434   1.439   3.981
 2990POPC   C3A33454  18.655   1.521   4.416
 2990POPC   C4A33455  18.406   1.620   4.825
 2990POPC   C1B33456  17.539   2.024   3.994
 2990POPC   C2B33457  17.272   2.052   4.346
 2990POPC   C3B33458  17.203   2.026   4.834
 2990POPC   C4B33459  17.166   2.049   5.277
 2991POPC   NC333460  26.917   1.735   3.610
 2991POPC   PO433461  27.274   1.894   3.766
 2991POPC   GL133462  27.555   1.496   3.762
 2991POPC   GL233463  27.788   1.647   3.883
 2991POPC   C1A33464  27.506   1.280   4.175
 2991POPC   D2A33465  27.306   0.948   4.566
 2991POPC   C3A33466  27.031   0.579   4.822
 2991POPC   C4A33467  27.058   0.259   5.104
 2991POPC   C1B33468  27.659   1.741   4.250
 2991POPC   C2B33469  27.464   1.584   4.617
 2991POPC   C3B33470  27.540   1.291   4.997
 2991POPC   C4B33471  27.730   1.053   5.388
 2992POPC   NC333472   2.043   1.523   3.337
 2992POPC   PO433473   1.709   1.635   3.178
 2992POPC   GL133474   1.699   1.796   3.504
 2992POPC   GL233475   1.398   1.719   3.555
 2992POPC   C1A33476   1.831   1.916   3.961
 2992POPC   D2A33477   1.929   2.157   4.403
 2992POPC   C3A33478   1.904   2.242   4.850
 2992POPC   C4A33479   1.771   2.447   5.264
 2992POPC   C1B33480   1.320   1.846   3.925
 2992POPC   C2B33481   1.384   1.907   4.362
 2992POPC   C3B33482   1.388   2.024   4.823
 2992POPC   C4B33483   1.332   2.156   5.256
 2993POPC   NC333484   9.582  10.139   3.224
 2993POPC   PO433485   9.767   9.915   3.462
 2993POPC   GL133486   9.922   9.910   3.931
 2993POPC   GL233487  10.179   9.878   3.846
 2993POPC   C1A33488   9.720   9.999   4.350
 2993POPC   D2A33489   9.432  10.307   4.647
 2993POPC   C3A33490   9.000  10.402   4.945
 2993POPC   C4A33491   9.027  10.697   5.368
 2993POPC   C1B33492  10.148   9.744   4.219
 2993POPC   C2B33493  10.195   9.779   4.604
 2993POPC   C3B33494  10.324   9.927   4.979
 2993POPC   C4B33495  10.735   9.751   5.309
 2994POPC   NC333496  20.360   3.139   3.657
 2994POPC   PO433497  20.395   2.863   3.951
 2994POPC   GL133498  20.011   2.940   4.169
 2994POPC   GL233499  20.084   3.249   4.105
 2994POPC   C1A33500  19.770   2.768   4.555
 2994POPC   D2A33501  19.983   2.819   5.011
 2994POPC   C3A33502  19.753   3.080   5.258
 2994POPC   C4A33503  19.258   3.257   5.337
 2994POPC   C1B33504  20.189   3.517   4.339
 2994POPC   C2B33505  20.345   3.591   4.738
 2994POPC   C3B33506  20.192   3.700   5.194
 2994POPC   C4B33507  20.122   3.831   5.684
 2995POPC   NC333508  26.958  27.877   3.222
 2995POPC   PO433509  27.165  28.202   3.260
 2995POPC   GL133510  27.264  28.231   3.724
 2995POPC   GL233511  27.130  28.462   3.711
 2995POPC   C1A33512  27.018  28.234   4.124
 2995POPC   D2A33513  27.075  28.400   4.596
 2995POPC   C3A33514  26.790  28.092   4.736
 2995POPC   C4A33515  26.482  27.672   4.658
 2995POPC   C1B33516  27.104  28.705   3.959
 2995POPC   C2B33517  27.014  28.813   4.355
 2995POPC   C3B33518  26.749  28.891   4.777
 2995POPC   C4B33519  26.828  29.065   5.265
 2996POPC   NC333520  20.389  19.841   3.305
 2996POPC   PO433521  20.045  19.863   3.463
 2996POPC   GL133522  20.089  19.973   3.960
 2996POPC   GL233523  19.800  19.888   3.980
 2996POPC   C1A33524  20.401  20.229   4.035
 2996POPC   D2A33525  20.749  20.530   4.223
 2996POPC   C3A33526  20.790  20.336   4.587
 2996POPC   C4A33527  21.011  20.240   4.954
 2996POPC   C1B33528  19.592  19.692   4.213
 2996POPC   C2B33529  19.661  19.523   4.578
 2996POPC   C3B33530  19.695  19.369   5.115
 2996POPC   C4B33531  19.567  19.065   5.454
 2997POPC   NC333532  33.394  15.779   3.210
 2997POPC   PO433533  33.390  15.614   3.565
 2997POPC   GL133534  33.467  15.752   3.997
 2997POPC   GL233535  33.206  15.825   3.961
 2997POPC   C1A33536  33.650  15.944   4.368
 2997POPC   D2A33537  33.717  15.630   4.801
 2997POPC   C3A33538  33.723  15.547   5.207
 2997POPC   C4A33539  33.725  15.471   5.665
 2997POPC   C1B33540  33.111  15.828   4.358
 2997POPC   C2B33541  32.936  15.737   4.716
 2997POPC   C3B33542  32.762  15.643   5.156
 2997POPC   C4B33543  32.492  15.793   5.542
 2998POPC   NC333544  35.471  20.088   3.643
 2998POPC   PO433545  35.378  20.339   3.904
 2998POPC   GL133546  35.392  20.187   4.275
 2998POPC   GL233547  35.096  20.295   4.357
 2998POPC   C1A33548  35.756  20.105   4.618
 2998POPC   D2A33549  36.020  19.700   4.779
 2998POPC   C3A33550  36.139  19.848   5.131
 2998POPC   C4A33551  36.024  20.095   5.522
 2998POPC   C1B33552  35.095  20.245   4.697
 2998POPC   C2B33553  35.177  20.174   5.080
 2998POPC   C3B33554  34.832  20.054   5.399
 2998POPC   C4B33555  34.365  19.980   5.538
 2999POPC   NC333556  10.030   4.794   3.102
 2999POPC   PO433557   9.724   4.954   3.299
 2999POPC   GL133558   9.604   4.948   3.678
 2999POPC   GL233559   9.436   4.686   3.620
 2999POPC   C1A33560   9.627   5.296   3.994
 2999POPC   D2A33561   9.379   5.497   4.421
 2999POPC   C3A33562   9.367   5.460   4.847
 2999POPC   C4A33563   9.562   5.533   5.330
 2999POPC   C1B33564   9.314   4.604   3.966
 2999POPC   C2B33565   9.399   4.411   4.327
 2999POPC   C3B33566   9.368   4.428   4.772
 2999POPC   C4B33567   9.414   4.085   5.089
 3000POPC   NC333568  18.371   4.949   3.817
 3000POPC   PO433569  18.114   4.681   3.664
 3000POPC   GL133570  17.794   4.728   3.929
 3000POPC   GL233571  18.002   4.848   4.176
 3000POPC   C1A33572  17.526   4.898   4.334
 3000POPC   D2A33573  17.254   5.013   4.692
 3000POPC   C3A33574  17.108   5.196   5.069
 3000POPC   C4A33575  17.224   5.651   5.270
 3000POPC   C1B33576  17.876   5.150   4.369
 3000POPC   C2B33577  17.778   5.060   4.742
 3000POPC   C3B33578  17.570   5.210   5.162
 3000POPC   C4B33579  17.302   5.295   5.550
 3001POPC   NC333580  34.503   4.285   3.347
 3001POPC   PO433581  34.886   4.104   3.349
 3001POPC   GL133582  34.759   3.924   3.668
 3001POPC   GL233583  34.609   4.119   3.846
 3001POPC   C1A33584  34.583   3.564   3.825
 3001POPC   D2A33585  34.507   3.324   4.206
 3001POPC   C3A33586  34.557   3.361   4.628
 3001POPC   C4A33587  34.712   3.459   5.092
 3001POPC   C1B33588  34.766   4.249   4.159
 3001POPC   C2B33589  34.635   4.302   4.588
 3001POPC   C3B33590  34.712   4.528   5.005
 3001POPC   C4B33591  34.589   4.951   5.259
 3002POPC   NC333592  10.468  29.759   3.017
 3002POPC   PO433593  10.308  29.460   3.264
 3002POPC   GL133594  10.047  29.405   3.586
 3002POPC   GL233595   9.969  29.140   3.476
 3002POPC   C1A33596  10.051  29.403   4.027
 3002POPC   D2A33597   9.849  29.518   4.461
 3002POPC   C3A33598   9.669  29.426   4.887
 3002POPC   C4A33599   9.770  29.240   5.311
 3002POPC   C1B33600   9.652  29.077   3.682
 3002POPC   C2B33601   9.336  28.928   3.930
 3002POPC   C3B33602   9.032  29.028   4.273
 3002POPC   C4B33603   8.764  29.253   4.600
 3003POPC   NC333604  14.471  25.934   2.726
 3003POPC   PO433605  14.216  26.200   2.834
 3003POPC   GL133606  14.116  26.229   3.293
 3003POPC   GL233607  14.360  26.221   3.363
 3003POPC   C1A33608  13.854  26.256   3.644
 3003POPC   D2A33609  13.768  26.374   4.139
 3003POPC   C3A33610  13.657  26.497   4.594
 3003POPC   C4A33611  13.721  26.592   5.070
 3003POPC   C1B33612  14.347  26.180   3.746
 3003POPC   C2B33613  14.384  26.273   4.145
 3003POPC   C3B33614  14.400  26.287   4.651
 3003POPC   C4B33615  14.256  25.988   5.021
 3004POPC   NC333616  20.392  18.118   3.525
 3004POPC   PO433617  20.240  17.759   3.533
 3004POPC   GL133618  20.276  17.646   3.916
 3004POPC   GL233619  20.390  17.899   3.938
 3004POPC   C1A33620  20.379  17.521   4.338
 3004POPC   D2A33621  20.506  17.242   4.718
 3004POPC   C3A33622  20.717  17.369   5.151
 3004POPC   C4A33623  20.590  17.275   5.576
 3004POPC   C1B33624  20.664  18.030   4.141
 3004POPC   C2B33625  20.767  18.215   4.485
 3004POPC   C3B33626  20.787  18.350   4.911
 3004POPC   C4B33627  20.753  18.256   5.364
 3005POPC   NC333628  11.163  15.680   3.295
 3005POPC   PO433629  10.820  15.503   3.249
 3005POPC   GL133630  10.750  15.245   3.581
 3005POPC   GL233631  10.531  15.037   3.524
 3005POPC   C1A33632  10.919  15.298   3.996
 3005POPC   D2A33633  10.982  15.440   4.423
 3005POPC   C3A33634  10.785  15.440   4.837
 3005POPC   C4A33635  10.716  15.464   5.302
 3005POPC   C1B33636  10.375  15.063   3.827
 3005POPC   C2B33637  10.208  14.915   4.190
 3005POPC   C3B33638  10.140  14.826   4.589
 3005POPC   C4B33639   9.832  14.677   5.010
 3006POPC   NC333640  30.909  28.088   3.269
 3006POPC   PO433641  31.185  27.881   3.340
 3006POPC   GL133642  31.186  27.823   3.789
 3006POPC   GL233643  30.847  27.785   3.816
 3006POPC   C1A33644  31.113  28.131   4.111
 3006POPC   D2A33645  31.099  27.994   4.546
 3006POPC   C3A33646  30.964  27.997   4.980
 3006POPC   C4A33647  30.751  28.206   5.433
 3006POPC   C1B33648  30.779  27.799   4.184
 3006POPC   C2B33649  30.847  27.539   4.516
 3006POPC   C3B33650  31.003  27.312   4.956
 3006POPC   C4B33651  31.269  27.129   5.251
 3007POPC   NC333652   2.314   9.897   4.141
 3007POPC   PO433653   2.333   9.558   3.928
 3007POPC   GL133654   2.429   9.190   4.152
 3007POPC   GL233655   2.164   9.306   4.330
 3007POPC   C1A33656   2.778   9.182   4.418
 3007POPC   D2A33657   2.790   9.035   4.917
 3007POPC   C3A33658   2.654   8.828   5.258
 3007POPC   C4A33659   2.707   8.549   5.706
 3007POPC   C1B33660   1.852   9.137   4.499
 3007POPC   C2B33661   1.851   9.037   4.896
 3007POPC   C3B33662   1.932   9.163   5.390
 3007POPC   C4B33663   2.067   9.424   5.752
 3008POPC   NC333664   7.530  33.935   3.342
 3008POPC   PO433665   7.348  34.159   3.068
 3008POPC   GL133666   7.194  34.417   3.354
 3008POPC   GL233667   7.114  34.195   3.501
 3008POPC   C1A33668   7.412  34.647   3.618
 3008POPC   D2A33669   7.497  35.023   3.994
 3008POPC   C3A33670   7.731  35.488   3.888
 3008POPC   C4A33671   7.704  35.860   4.160
 3008POPC   C1B33672   7.223  34.229   3.873
 3008POPC   C2B33673   7.313  34.433   4.231
 3008POPC   C3B33674   7.312  34.657   4.649
 3008POPC   C4B33675   7.214  34.841   5.117
 3009POPC   NC333676  17.888  34.385   3.308
 3009POPC   PO433677  18.129  34.043   3.425
 3009POPC   GL133678  18.067  33.828   3.762
 3009POPC   GL233679  17.832  33.946   3.770
 3009POPC   C1A33680  18.144  33.615   4.135
 3009POPC   D2A33681  18.252  33.561   4.632
 3009POPC   C3A33682  17.928  33.498   5.008
 3009POPC   C4A33683  17.468  33.429   5.179
 3009POPC   C1B33684  17.512  33.862   3.863
 3009POPC   C2B33685  17.389  33.703   4.210
 3009POPC   C3B33686  17.265  33.564   4.667
 3009POPC   C4B33687  17.258  33.886   5.036
 3010POPC   NC333688  33.801  27.660   3.384
 3010POPC   PO433689  34.018  27.887   3.635
 3010POPC   GL133690  34.334  27.915   3.866
 3010POPC   GL233691  34.236  28.227   3.854
 3010POPC   C1A33692  34.345  27.591   4.154
 3010POPC   D2A33693  34.622  27.556   4.567
 3010POPC   C3A33694  34.544  27.514   4.986
 3010POPC   C4A33695  34.945  27.649   5.291
 3010POPC   C1B33696  34.398  28.498   4.046
 3010POPC   C2B33697  34.681  28.598   4.383
 3010POPC   C3B33698  34.679  28.544   4.868
 3010POPC   C4B33699  34.658  28.593   5.347
 3011POPC   NC333700   9.503  20.471   2.603
 3011POPC   PO433701   9.442  20.197   2.913
 3011POPC   GL133702   9.302  20.162   3.349
 3011POPC   GL233703   9.589  20.208   3.330
 3011POPC   C1A33704   9.299  20.334   3.745
 3011POPC   D2A33705   9.402  20.620   4.191
 3011POPC   C3A33706   9.380  20.321   4.526
 3011POPC   C4A33707   9.296  19.926   4.822
 3011POPC   C1B33708   9.920  20.041   3.471
 3011POPC   C2B33709  10.334  20.070   3.588
 3011POPC   C3B33710  10.743  20.229   3.483
 3011POPC   C4B33711  11.086  20.570   3.521
 3012POPC   NC333712   0.989  26.543   3.819
 3012POPC   PO433713   1.393  26.450   3.752
 3012POPC   GL133714   1.223  26.349   4.181
 3012POPC   GL233715   1.279  26.060   4.201
 3012POPC   C1A33716   1.271  26.340   4.607
 3012POPC   D2A33717   1.321  26.333   5.110
 3012POPC   C3A33718   1.215  25.941   5.334
 3012POPC   C4A33719   1.170  25.602   5.637
 3012POPC   C1B33720   1.127  25.881   4.471
 3012POPC   C2B33721   0.929  25.840   4.851
 3012POPC   C3B33722   0.808  25.640   5.274
 3012POPC   C4B33723   0.813  25.923   5.680
 3013POPC   NC333724   4.550   8.431   3.673
 3013POPC   PO433725   4.881   8.533   3.851
 3013POPC   GL133726   4.729   8.521   4.334
 3013POPC   GL233727   4.806   8.279   4.335
 3013POPC   C1A33728   4.595   8.715   4.614
 3013POPC   D2A33729   4.512   8.844   5.049
 3013POPC   C3A33730   4.240   8.961   5.401
 3013POPC   C4A33731   3.977   8.973   5.739
 3013POPC   C1B33732   4.701   8.055   4.529
 3013POPC   C2B33733   4.568   7.861   4.840
 3013POPC   C3B33734   4.325   7.758   5.227
 3013POPC   C4B33735   4.051   7.502   5.462
 3014POPC   NC333736  25.852  17.260   3.133
 3014POPC   PO433737  26.037  17.097   3.449
 3014POPC   GL133738  26.416  17.334   3.589
 3014POPC   GL233739  26.547  17.066   3.611
 3014POPC   C1A33740  26.508  17.504   3.994
 3014POPC   D2A33741  26.597  17.451   4.469
 3014POPC   C3A33742  26.643  17.459   4.952
 3014POPC   C4A33743  26.832  17.308   5.265
 3014POPC   C1B33744  26.673  17.004   3.945
 3014POPC   C2B33745  26.791  16.974   4.320
 3014POPC   C3B33746  26.901  17.054   4.804
 3014POPC   C4B33747  27.288  17.144   5.193
 3015POPC   NC333748  19.200  19.128   3.709
 3015POPC   PO433749  19.196  18.908   4.025
 3015POPC   GL133750  19.327  18.912   4.355
 3015POPC   GL233751  19.478  19.082   4.456
 3015POPC   C1A33752  18.940  19.028   4.648
 3015POPC   D2A33753  18.633  19.040   5.006
 3015POPC   C3A33754  18.602  18.894   5.474
 3015POPC   C4A33755  18.264  18.726   5.810
 3015POPC   C1B33756  19.501  19.110   4.794
 3015POPC   C2B33757  19.221  18.897   5.049
 3015POPC   C3B33758  19.062  19.080   5.415
 3015POPC   C4B33759  19.234  19.337   5.890
 3016POPC   NC333760   2.664  27.878   3.455
 3016POPC   PO433761   3.029  27.700   3.491
 3016POPC   GL133762   3.155  27.500   3.901
 3016POPC   GL233763   3.244  27.742   4.070
 3016POPC   C1A33764   3.013  27.299   4.214
 3016POPC   D2A33765   2.616  27.412   4.533
 3016POPC   C3A33766   2.672  27.526   4.997
 3016POPC   C4A33767   2.618  27.662   5.454
 3016POPC   C1B33768   3.230  27.621   4.412
 3016POPC   C2B33769   3.120  27.365   4.747
 3016POPC   C3B33770   3.089  27.103   5.153
 3016POPC   C4B33771   2.834  26.840   5.558
 3017POPC   NC333772  15.395  25.738   2.819
 3017POPC   PO433773  15.315  26.045   3.057
 3017POPC   GL133774  15.379  26.257   3.462
 3017POPC   GL233775  15.099  26.139   3.455
 3017POPC   C1A33776  15.502  26.229   3.863
 3017POPC   D2A33777  15.543  25.932   4.317
 3017POPC   C3A33778  15.283  25.947   4.663
 3017POPC   C4A33779  15.237  26.077   5.147
 3017POPC   C1B33780  15.078  26.270   3.798
 3017POPC   C2B33781  14.915  26.498   4.130
 3017POPC   C3B33782  14.612  26.800   4.364
 3017POPC   C4B33783  14.393  27.239   4.537
 3018POPC   NC333784   0.145  33.530   3.025
 3018POPC   PO433785   0.193  33.557   3.429
 3018POPC   GL133786   0.211  33.420   3.822
 3018POPC   GL233787   0.407  33.631   3.903
 3018POPC   C1A33788   0.275  33.248   4.234
 3018POPC   D2A33789   0.192  33.368   4.692
 3018POPC   C3A33790  -0.099  33.692   4.966
 3018POPC   C4A33791  -0.152  33.784   5.413
 3018POPC   C1B33792   0.298  33.708   4.240
 3018POPC   C2B33793  -0.075  33.725   4.424
 3018POPC   C3B33794  -0.478  33.576   4.503
 3018POPC   C4B33795  -0.568  33.200   4.754
 3019POPC   NC333796  27.274  24.545   2.918
 3019POPC   PO433797  27.397  24.176   2.789
 3019POPC   GL133798  27.456  24.020   3.223
 3019POPC   GL233799  27.607  24.301   3.258
 3019POPC   C1A33800  27.319  23.806   3.682
 3019POPC   D2A33801  27.177  23.851   4.185
 3019POPC   C3A33802  26.907  23.788   4.570
 3019POPC   C4A33803  26.667  23.738   5.015
 3019POPC   C1B33804  27.543  24.226   3.629
 3019POPC   C2B33805  27.531  24.126   4.022
 3019POPC   C3B33806  27.397  24.284   4.458
 3019POPC   C4B33807  27.022  24.195   4.858
 3020POPC   NC333808  30.066  27.636   3.493
 3020POPC   PO433809  30.469  27.800   3.550
 3020POPC   GL133810  30.415  27.774   3.989
 3020POPC   GL233811  30.151  27.580   3.992
 3020POPC   C1A33812  30.388  27.736   4.489
 3020POPC   D2A33813  30.537  27.600   4.944
 3020POPC   C3A33814  30.362  27.928   5.250
 3020POPC   C4A33815  30.086  28.230   5.560
 3020POPC   C1B33816  29.958  27.435   4.302
 3020POPC   C2B33817  29.916  27.394   4.705
 3020POPC   C3B33818  30.063  27.459   5.126
 3020POPC   C4B33819  30.037  27.668   5.537
 3021POPC   NC333820  23.955  15.287   3.526
 3021POPC   PO433821  23.874  15.659   3.628
 3021POPC   GL133822  24.079  15.625   3.942
 3021POPC   GL233823  24.218  15.377   3.892
 3021POPC   C1A33824  24.165  15.704   4.368
 3021POPC   D2A33825  24.463  15.802   4.787
 3021POPC   C3A33826  24.426  15.857   5.214
 3021POPC   C4A33827  24.195  16.052   5.554
 3021POPC   C1B33828  24.341  15.198   4.212
 3021POPC   C2B33829  24.369  15.303   4.656
 3021POPC   C3B33830  24.292  15.297   5.138
 3021POPC   C4B33831  24.134  15.251   5.596
 3022POPC   NC333832   9.992  33.038   3.276
 3022POPC   PO433833   9.749  33.349   3.248
 3022POPC   GL133834   9.570  33.107   3.599
 3022POPC   GL233835   9.806  33.082   3.703
 3022POPC   C1A33836   9.362  33.351   3.929
 3022POPC   D2A33837   9.464  33.294   4.413
 3022POPC   C3A33838   9.664  33.339   4.784
 3022POPC   C4A33839   9.742  33.176   5.197
 3022POPC   C1B33840   9.734  32.965   3.998
 3022POPC   C2B33841   9.651  32.767   4.403
 3022POPC   C3B33842   9.600  32.721   4.888
 3022POPC   C4B33843   9.501  32.690   5.349
 3023POPC   NC333844  11.280  12.603   3.779
 3023POPC   PO433845  11.163  12.953   3.708
 3023POPC   GL133846  11.340  13.018   4.078
 3023POPC   GL233847  11.095  13.172   4.159
 3023POPC   C1A33848  11.486  12.678   4.251
 3023POPC   D2A33849  11.734  12.366   4.583
 3023POPC   C3A33850  11.901  12.049   4.947
 3023POPC   C4A33851  12.108  11.799   5.276
 3023POPC   C1B33852  11.156  13.335   4.496
 3023POPC   C2B33853  11.070  13.321   4.913
 3023POPC   C3B33854  10.847  13.021   5.091
 3023POPC   C4B33855  10.395  12.794   4.960
 3024POPC   NC333856  12.168   6.006   3.121
 3024POPC   PO433857  12.499   6.270   3.171
 3024POPC   GL133858  12.481   6.287   3.554
 3024POPC   GL233859  12.766   6.364   3.534
 3024POPC   C1A33860  12.171   6.322   3.783
 3024POPC   D2A33861  11.867   6.553   4.167
 3024POPC   C3A33862  11.640   6.550   4.564
 3024POPC   C4A33863  11.580   6.531   5.079
 3024POPC   C1B33864  12.956   6.374   3.868
 3024POPC   C2B33865  13.059   6.324   4.317
 3024POPC   C3B33866  13.074   6.333   4.790
 3024POPC   C4B33867  12.974   6.057   5.204
 3025POPC   NC333868  12.310  21.551   3.343
 3025POPC   PO433869  12.723  21.471   3.400
 3025POPC   GL133870  12.985  21.373   3.729
 3025POPC   GL233871  13.007  21.111   3.708
 3025POPC   C1A33872  13.102  21.388   4.158
 3025POPC   D2A33873  12.828  21.284   4.516
 3025POPC   C3A33874  12.581  21.418   4.792
 3025POPC   C4A33875  12.277  21.338   5.183
 3025POPC   C1B33876  12.888  20.882   3.999
 3025POPC   C2B33877  12.522  20.897   4.272
 3025POPC   C3B33878  12.176  20.845   4.668
 3025POPC   C4B33879  12.046  20.535   5.010
 3026POPC   NC333880  12.397   1.286   2.763
 3026POPC   PO433881  12.180   1.007   2.975
 3026POPC   GL133882  11.942   1.059   3.270
 3026POPC   GL233883  11.957   0.888   3.444
 3026POPC   C1A33884  11.669   1.290   3.442
 3026POPC   D2A33885  11.791   1.419   3.977
 3026POPC   C3A33886  11.723   1.345   4.452
 3026POPC   C4A33887  11.676   1.052   4.855
 3026POPC   C1B33888  11.776   0.967   3.798
 3026POPC   C2B33889  11.435   1.066   4.058
 3026POPC   C3B33890  11.145   1.213   4.424
 3026POPC   C4B33891  11.149   1.040   4.842
 3027POPC   NC333892   2.097   1.774   2.946
 3027POPC   PO433893   2.050   2.003   3.260
 3027POPC   GL133894   2.195   1.912   3.615
 3027POPC   GL233895   2.198   2.236   3.693
 3027POPC   C1A33896   2.242   1.555   3.891
 3027POPC   D2A33897   2.567   1.431   4.297
 3027POPC   C3A33898   2.340   1.391   4.595
 3027POPC   C4A33899   2.366   1.583   5.029
 3027POPC   C1B33900   2.048   2.424   3.909
 3027POPC   C2B33901   1.889   2.655   4.156
 3027POPC   C3B33902   1.921   2.711   4.603
 3027POPC   C4B33903   2.158   2.756   5.050
 3028POPC   NC333904  15.563  30.126   3.211
 3028POPC   PO433905  15.910  30.050   3.397
 3028POPC   GL133906  16.012  30.075   3.744
 3028POPC   GL233907  15.757  30.120   3.871
 3028POPC   C1A33908  16.362  30.168   3.865
 3028POPC   D2A33909  16.600  30.434   4.205
 3028POPC   C3A33910  16.463  30.583   4.603
 3028POPC   C4A33911  16.555  30.941   4.875
 3028POPC   C1B33912  15.955  30.124   4.214
 3028POPC   C2B33913  16.195  30.146   4.564
 3028POPC   C3B33914  16.215  30.140   5.017
 3028POPC   C4B33915  16.594  30.407   5.086
 3029POPC   NC333916  14.668  20.504   3.636
 3029POPC   PO433917  15.053  20.346   3.697
 3029POPC   GL133918  14.939  20.358   4.114
 3029POPC   GL233919  14.665  20.195   4.044
 3029POPC   C1A33920  15.079  20.298   4.512
 3029POPC   D2A33921  14.858  20.362   4.933
 3029POPC   C3A33922  14.487  20.255   5.157
 3029POPC   C4A33923  14.461  19.895   5.558
 3029POPC   C1B33924  14.574  19.860   3.984
 3029POPC   C2B33925  14.368  19.766   4.354
 3029POPC   C3B33926  14.188  19.801   4.815
 3029POPC   C4B33927  14.199  19.575   5.256
 3030POPC   NC333928  16.224  22.778   3.496
 3030POPC   PO433929  16.453  22.470   3.556
 3030POPC   GL133930  16.378  22.190   3.869
 3030POPC   GL233931  16.125  22.346   3.783
 3030POPC   C1A33932  16.305  22.301   4.289
 3030POPC   D2A33933  16.364  22.583   4.658
 3030POPC   C3A33934  16.251  22.260   5.016
 3030POPC   C4A33935  16.023  22.009   5.274
 3030POPC   C1B33936  15.911  22.370   4.104
 3030POPC   C2B33937  15.845  22.371   4.514
 3030POPC   C3B33938  15.712  22.202   4.944
 3030POPC   C4B33939  15.429  22.089   5.315
 3031POPC   NC333940  31.885  15.093   3.772
 3031POPC   PO433941  31.693  15.416   3.644
 3031POPC   GL133942  31.550  15.495   4.062
 3031POPC   GL233943  31.615  15.784   3.985
 3031POPC   C1A33944  31.874  15.345   4.259
 3031POPC   D2A33945  32.109  15.429   4.713
 3031POPC   C3A33946  31.808  15.646   5.034
 3031POPC   C4A33947  31.747  15.548   5.458
 3031POPC   C1B33948  31.981  15.844   4.022
 3031POPC   C2B33949  32.096  15.809   4.461
 3031POPC   C3B33950  32.352  15.874   4.903
 3031POPC   C4B33951  32.240  15.556   5.217
 3032POPC   NC333952   0.543   1.424   3.540
 3032POPC   PO433953   0.814   1.603   3.330
 3032POPC   GL133954   0.956   1.654   3.706
 3032POPC   GL233955   0.917   1.953   3.747
 3032POPC   C1A33956   0.908   1.254   3.910
 3032POPC   D2A33957   0.736   0.860   4.143
 3032POPC   C3A33958   1.035   0.730   4.545
 3032POPC   C4A33959   1.507   0.577   4.696
 3032POPC   C1B33960   1.052   2.136   3.999
 3032POPC   C2B33961   1.012   2.223   4.419
 3032POPC   C3B33962   0.943   2.333   4.872
 3032POPC   C4B33963   0.727   2.470   5.369
 3033POPC   NC333964  24.598  18.136   3.757
 3033POPC   PO433965  24.894  18.341   3.619
 3033POPC   GL133966  25.146  18.439   4.042
 3033POPC   GL233967  25.039  18.192   4.142
 3033POPC   C1A33968  25.435  18.665   4.275
 3033POPC   D2A33969  25.531  18.910   4.698
 3033POPC   C3A33970  25.833  18.692   5.101
 3033POPC   C4A33971  26.093  18.836   5.483
 3033POPC   C1B33972  25.046  18.027   4.468
 3033POPC   C2B33973  25.030  18.124   4.846
 3033POPC   C3B33974  25.057  17.770   5.196
 3033POPC   C4B33975  24.963  17.768   5.692
 3034POPC   NC333976  28.029   6.210   2.848
 3034POPC   PO433977  28.092   6.413   3.202
 3034POPC   GL133978  27.852   6.443   3.601
 3034POPC   GL233979  27.984   6.712   3.675
 3034POPC   C1A33980  27.584   6.392   3.895
 3034POPC   D2A33981  27.298   6.173   4.264
 3034POPC   C3A33982  27.030   5.789   4.105
 3034POPC   C4A33983  26.846   5.320   4.108
 3034POPC   C1B33984  27.837   6.758   4.002
 3034POPC   C2B33985  27.993   6.857   4.405
 3034POPC   C3B33986  28.159   6.861   4.852
 3034POPC   C4B33987  28.611   7.071   5.044
 3035POPC   NC333988   6.230  21.855   3.229
 3035POPC   PO433989   5.969  21.990   3.554
 3035POPC   GL133990   5.762  21.796   3.921
 3035POPC   GL233991   5.731  22.065   4.038
 3035POPC   C1A33992   5.974  21.482   4.198
 3035POPC   D2A33993   5.805  21.447   4.674
 3035POPC   C3A33994   5.979  21.367   5.059
 3035POPC   C4A33995   6.303  21.103   5.355
 3035POPC   C1B33996   5.536  22.142   4.390
 3035POPC   C2B33997   5.716  22.271   4.795
 3035POPC   C3B33998   5.866  22.536   5.220
 3035POPC   C4B33999   5.739  22.942   5.362
 3036POPC   NC334000  30.720   7.203   3.130
 3036POPC   PO434001  30.488   6.917   3.333
 3036POPC   GL134002  30.591   6.714   3.678
 3036POPC   GL234003  30.348   6.889   3.763
 3036POPC   C1A34004  30.833   6.622   4.051
 3036POPC   D2A34005  30.788   6.458   4.517
 3036POPC   C3A34006  31.064   6.363   4.886
 3036POPC   C4A34007  31.365   6.290   5.222
 3036POPC   C1B34008  30.297   6.956   4.134
 3036POPC   C2B34009  30.245   6.840   4.559
 3036POPC   C3B34010  30.219   6.956   5.007
 3036POPC   C4B34011  30.467   6.727   5.383
 3037POPC   NC334012  26.733   8.769   3.003
 3037POPC   PO434013  26.660   8.418   3.156
 3037POPC   GL134014  26.632   8.534   3.626
 3037POPC   GL234015  26.773   8.769   3.573
 3037POPC   C1A34016  26.788   8.277   3.992
 3037POPC   D2A34017  26.783   8.029   4.422
 3037POPC   C3A34018  26.816   8.049   4.810
 3037POPC   C4A34019  26.940   7.987   5.283
 3037POPC   C1B34020  27.076   8.663   3.768
 3037POPC   C2B34021  27.259   8.373   4.083
 3037POPC   C3B34022  27.335   8.151   4.550
 3037POPC   C4B34023  27.648   7.990   4.868
 3038POPC   NC334024  25.509  26.733   3.102
 3038POPC   PO434025  25.177  26.944   3.253
 3038POPC   GL134026  25.243  27.045   3.706
 3038POPC   GL234027  25.489  26.833   3.656
 3038POPC   C1A34028  25.237  27.060   4.110
 3038POPC   D2A34029  25.165  27.066   4.573
 3038POPC   C3A34030  24.899  27.254   4.844
 3038POPC   C4A34031  24.582  27.139   5.203
 3038POPC   C1B34032  25.673  26.759   3.967
 3038POPC   C2B34033  25.555  26.691   4.305
 3038POPC   C3B34034  25.406  26.578   4.676
 3038POPC   C4B34035  25.613  26.691   5.095
 3039POPC   NC334036  12.447   3.464   3.005
 3039POPC   PO434037  12.768   3.418   3.150
 3039POPC   GL134038  12.610   3.502   3.454
 3039POPC   GL234039  12.824   3.325   3.609
 3039POPC   C1A34040  12.275   3.587   3.805
 3039POPC   D2A34041  12.050   3.708   4.229
 3039POPC   C3A34042  12.250   3.768   4.594
 3039POPC   C4A34043  12.472   3.636   5.060
 3039POPC   C1B34044  12.896   3.443   3.958
 3039POPC   C2B34045  12.918   3.553   4.368
 3039POPC   C3B34046  12.934   3.504   4.799
 3039POPC   C4B34047  12.909   3.467   5.319
 3040POPC   NC334048   7.509  18.291   3.231
 3040POPC   PO434049   7.899  18.435   3.271
 3040POPC   GL134050   7.874  18.686   3.570
 3040POPC   GL234051   7.584  18.751   3.505
 3040POPC   C1A34052   7.928  18.567   3.991
 3040POPC   D2A34053   8.373  18.445   4.272
 3040POPC   C3A34054   8.555  18.442   4.747
 3040POPC   C4A34055   8.566  18.198   5.191
 3040POPC   C1B34056   7.500  18.596   3.834
 3040POPC   C2B34057   7.529  18.484   4.300
 3040POPC   C3B34058   7.498  18.304   4.755
 3040POPC   C4B34059   7.514  18.099   5.169
 3041POPC   NC334060  11.116  28.879   2.966
 3041POPC   PO434061  11.411  29.058   3.182
 3041POPC   GL134062  11.527  29.019   3.577
 3041POPC   GL234063  11.669  28.817   3.451
 3041POPC   C1A34064  11.247  28.878   3.857
 3041POPC   D2A34065  11.181  28.580   4.273
 3041POPC   C3A34066  11.319  28.489   4.786
 3041POPC   C4A34067  11.523  28.484   5.259
 3041POPC   C1B34068  11.876  28.763   3.743
 3041POPC   C2B34069  12.164  28.683   4.053
 3041POPC   C3B34070  12.128  28.809   4.496
 3041POPC   C4B34071  11.890  29.020   4.862
 3042POPC   NC334072  27.603  34.509   3.233
 3042POPC   PO434073  27.562  34.906   3.387
 3042POPC   GL134074  27.741  34.931   3.701
 3042POPC   GL234075  27.760  35.137   3.896
 3042POPC   C1A34076  27.792  34.681   4.038
 3042POPC   D2A34077  28.095  34.332   4.263
 3042POPC   C3A34078  27.924  34.026   4.576
 3042POPC   C4A34079  27.883  33.794   5.045
 3042POPC   C1B34080  27.562  35.002   4.184
 3042POPC   C2B34081  27.627  35.040   4.639
 3042POPC   C3B34082  27.816  35.128   5.064
 3042POPC   C4B34083  27.844  35.249   5.546
 3043POPC   NC334084   1.455  14.421   4.059
 3043POPC   PO434085   1.539  14.822   4.164
 3043POPC   GL134086   1.362  14.654   4.509
 3043POPC   GL234087   1.098  14.507   4.394
 3043POPC   C1A34088   1.503  14.688   4.943
 3043POPC   D2A34089   1.307  14.613   5.434
 3043POPC   C3A34090   1.267  14.510   5.865
 3043POPC   C4A34091   1.369  14.380   6.365
 3043POPC   C1B34092   0.847  14.527   4.613
 3043POPC   C2B34093   0.580  14.754   4.833
 3043POPC   C3B34094   0.385  14.953   5.228
 3043POPC   C4B34095   0.174  14.919   5.620
 3044POPC   NC334096  22.695   4.934   3.793
 3044POPC   PO434097  22.782   4.585   3.711
 3044POPC   GL134098  22.874   4.606   4.089
 3044POPC   GL234099  22.722   4.490   4.234
 3044POPC   C1A34100  22.972   4.941   4.402
 3044POPC   D2A34101  22.940   5.034   4.833
 3044POPC   C3A34102  23.051   5.122   5.291
 3044POPC   C4A34103  23.199   5.469   5.622
 3044POPC   C1B34104  22.694   4.231   4.550
 3044POPC   C2B34105  22.662   4.149   4.960
 3044POPC   C3B34106  22.401   4.163   5.361
 3044POPC   C4B34107  22.086   4.006   5.718
 3045POPC   NC334108  34.413   0.745   2.531
 3045POPC   PO434109  34.245   0.524   2.850
 3045POPC   GL134110  34.318   0.549   3.242
 3045POPC   GL234111  34.000   0.568   3.355
 3045POPC   C1A34112  34.478   0.425   3.617
 3045POPC   D2A34113  34.512   0.305   4.068
 3045POPC   C3A34114  34.605   0.476   4.507
 3045POPC   C4A34115  35.001   0.415   4.790
 3045POPC   C1B34116  33.970   0.548   3.747
 3045POPC   C2B34117  34.092   0.655   4.162
 3045POPC   C3B34118  34.149   0.699   4.695
 3045POPC   C4B34119  34.426   0.621   5.106
 3046POPC   NC334120  30.801  29.717   3.195
 3046POPC   PO434121  30.636  29.387   3.371
 3046POPC   GL134122  30.715  29.397   3.772
 3046POPC   GL234123  30.925  29.338   3.898
 3046POPC   C1A34124  30.327  29.498   3.927
 3046POPC   D2A34125  30.052  29.500   4.342
 3046POPC   C3A34126  29.676  29.795   4.448
 3046POPC   C4A34127  29.621  30.239   4.660
 3046POPC   C1B34128  30.701  29.214   4.168
 3046POPC   C2B34129  30.437  28.973   4.337
 3046POPC   C3B34130  30.076  28.700   4.513
 3046POPC   C4B34131  29.893  28.490   4.887
 3047POPC   NC334132  29.292  14.096   3.479
 3047POPC   PO434133  28.908  13.921   3.498
 3047POPC   GL134134  28.706  13.989   3.870
 3047POPC   GL234135  28.477  14.016   3.758
 3047POPC   C1A34136  28.810  13.996   4.247
 3047POPC   D2A34137  28.722  13.922   4.702
 3047POPC   C3A34138  28.945  13.600   4.963
 3047POPC   C4A34139  29.259  13.442   5.213
 3047POPC   C1B34140  28.335  14.094   4.139
 3047POPC   C2B34141  28.263  14.206   4.553
 3047POPC   C3B34142  27.988  14.418   4.898
 3047POPC   C4B34143  27.827  14.668   5.284
 3048POPC   NC334144  11.772  16.988   2.825
 3048POPC   PO434145  11.996  17.024   3.152
 3048POPC   GL134146  11.842  17.266   3.510
 3048POPC   GL234147  12.060  17.149   3.573
 3048POPC   C1A34148  11.629  17.239   3.878
 3048POPC   D2A34149  11.542  17.313   4.341
 3048POPC   C3A34150  11.541  17.189   4.789
 3048POPC   C4A34151  11.604  17.317   5.283
 3048POPC   C1B34152  11.972  16.942   3.815
 3048POPC   C2B34153  11.960  16.820   4.184
 3048POPC   C3B34154  12.004  16.833   4.686
 3048POPC   C4B34155  11.930  16.900   5.140
 3049POPC   NC334156  28.985  24.697   3.414
 3049POPC   PO434157  28.621  24.561   3.276
 3049POPC   GL134158  28.418  24.691   3.564
 3049POPC   GL234159  28.553  24.956   3.626
 3049POPC   C1A34160  28.341  24.381   3.901
 3049POPC   D2A34161  28.452  24.269   4.374
 3049POPC   C3A34162  28.294  24.027   4.716
 3049POPC   C4A34163  28.502  23.656   5.043
 3049POPC   C1B34164  28.533  25.272   3.798
 3049POPC   C2B34165  28.536  25.461   4.146
 3049POPC   C3B34166  28.629  25.606   4.553
 3049POPC   C4B34167  28.802  25.740   4.930
 3050POPC   NC334168  34.596  19.149   3.715
 3050POPC   PO434169  34.289  19.413   3.662
 3050POPC   GL134170  34.183  19.547   4.122
 3050POPC   GL234171  34.318  19.377   4.164
 3050POPC   C1A34172  33.942  19.900   4.390
 3050POPC   D2A34173  34.006  20.186   4.747
 3050POPC   C3A34174  33.742  20.502   4.777
 3050POPC   C4A34175  33.250  20.638   4.670
 3050POPC   C1B34176  34.243  19.242   4.515
 3050POPC   C2B34177  34.151  19.173   4.903
 3050POPC   C3B34178  34.111  19.239   5.400
 3050POPC   C4B34179  34.395  19.254   5.804
 3051PAPC   NC334180  22.714  25.334   3.438
 3051PAPC   PO434181  23.081  25.475   3.270
 3051PAPC   GL134182  23.126  25.543   3.586
 3051PAPC   GL234183  23.356  25.560   3.745
 3051PAPC   C1A34184  22.919  25.701   3.798
 3051PAPC   D2A34185  22.856  25.813   4.178
 3051PAPC   D3A34186  22.729  25.927   4.615
 3051PAPC   D4A34187  22.859  26.144   5.014
 3051PAPC   C5A34188  22.504  25.848   5.134
 3051PAPC   C1B34189  23.227  25.555   4.155
 3051PAPC   C2B34190  23.133  25.615   4.550
 3051PAPC   C3B34191  22.964  25.602   4.891
 3051PAPC   C4B34192  23.033  25.407   5.297
 3052PAPC   NC334193   6.077  10.217   3.804
 3052PAPC   PO434194   5.812  10.151   3.486
 3052PAPC   GL134195   5.723   9.811   3.768
 3052PAPC   GL234196   5.534  10.007   3.906
 3052PAPC   C1A34197   6.024   9.803   4.008
 3052PAPC   D2A34198   6.239   9.840   4.312
 3052PAPC   D3A34199   6.413   9.628   3.971
 3052PAPC   D4A34200   6.805   9.539   3.867
 3052PAPC   C5A34201   6.961   9.510   4.373
 3052PAPC   C1B34202   5.719  10.088   4.224
 3052PAPC   C2B34203   5.757   9.943   4.605
 3052PAPC   C3B34204   5.713   9.863   5.125
 3052PAPC   C4B34205   5.577   9.647   5.503
 3053PAPC   NC334206   6.131  28.557   3.560
 3053PAPC   PO434207   5.903  28.839   3.446
 3053PAPC   GL134208   5.948  28.907   3.833
 3053PAPC   GL234209   5.779  29.154   3.811
 3053PAPC   C1A34210   5.827  28.751   4.175
 3053PAPC   D2A34211   5.847  28.709   4.558
 3053PAPC   D3A34212   5.962  28.291   4.565
 3053PAPC   D4A34213   6.163  28.353   4.231
 3053PAPC   C5A34214   6.168  27.909   4.085
 3053PAPC   C1B34215   5.688  29.312   4.144
 3053PAPC   C2B34216   5.717  29.626   4.476
 3053PAPC   C3B34217   5.711  29.737   4.956
 3053PAPC   C4B34218   5.760  30.108   5.308
 3054PAPC   NC334219  35.627   8.168   3.313
 3054PAPC   PO434220  35.380   7.873   3.408
 3054PAPC   GL134221  35.147   7.990   3.781
 3054PAPC   GL234222  35.093   7.791   3.897
 3054PAPC   C1A34223  34.923   8.289   3.950
 3054PAPC   D2A34224  34.788   8.520   4.240
 3054PAPC   D3A34225  34.671   8.925   4.307
 3054PAPC   D4A34226  34.972   9.214   4.424
 3054PAPC   C5A34227  35.200   9.248   4.874
 3054PAPC   C1B34228  35.212   7.649   4.255
 3054PAPC   C2B34229  35.293   7.699   4.629
 3054PAPC   C3B34230  35.664   7.485   4.794
 3054PAPC   C4B34231  35.774   7.026   4.672
 3055PAPC   NC334232  23.716  16.544   3.331
 3055PAPC   PO434233  23.815  16.569   3.691
 3055PAPC   GL134234  23.783  16.583   4.074
 3055PAPC   GL234235  23.935  16.547   4.211
 3055PAPC   C1A34236  23.573  16.407   4.376
 3055PAPC   D2A34237  23.580  16.230   4.729
 3055PAPC   D3A34238  23.678  16.668   4.840
 3055PAPC   D4A34239  23.747  17.118   4.886
 3055PAPC   C5A34240  23.641  17.017   5.322
 3055PAPC   C1B34241  24.116  16.654   4.496
 3055PAPC   C2B34242  24.251  16.696   4.879
 3055PAPC   C3B34243  24.319  16.767   5.315
 3055PAPC   C4B34244  24.712  16.845   5.585
 3056PAPC   NC334245  15.339   1.039   3.063
 3056PAPC   PO434246  15.420   0.700   2.965
 3056PAPC   GL134247  15.530   0.586   3.395
 3056PAPC   GL234248  15.625   0.339   3.235
 3056PAPC   C1A34249  15.418   0.642   3.710
 3056PAPC   D2A34250  15.487   0.748   4.111
 3056PAPC   D3A34251  15.260   0.633   4.462
 3056PAPC   D4A34252  15.214   0.167   4.489
 3056PAPC   C5A34253  15.051   0.118   4.908
 3056PAPC   C1B34254  15.473   0.198   3.559
 3056PAPC   C2B34255  15.298   0.291   3.917
 3056PAPC   C3B34256  14.922   0.388   4.149
 3056PAPC   C4B34257  14.673   0.270   4.558
 3057PAPC   NC334258  15.363   4.121   3.424
 3057PAPC   PO434259  15.183   4.473   3.595
 3057PAPC   GL134260  15.146   4.413   4.016
 3057PAPC   GL234261  15.418   4.328   3.957
 3057PAPC   C1A34262  14.999   4.433   4.337
 3057PAPC   D2A34263  14.980   4.245   4.707
 3057PAPC   D3A34264  14.804   4.238   5.121
 3057PAPC   D4A34265  14.905   4.219   5.569
 3057PAPC   C5A34266  14.406   4.187   5.560
 3057PAPC   C1B34267  15.472   4.325   4.335
 3057PAPC   C2B34268  15.466   4.299   4.761
 3057PAPC   C3B34269  15.418   4.299   5.242
 3057PAPC   C4B34270  15.554   4.311   5.690
 3058PAPC   NC334271  14.654   8.945   3.582
 3058PAPC   PO434272  14.604   8.574   3.728
 3058PAPC   GL134273  14.400   8.532   4.055
 3058PAPC   GL234274  14.667   8.523   4.242
 3058PAPC   C1A34275  14.159   8.681   4.223
 3058PAPC   D2A34276  13.929   8.705   4.555
 3058PAPC   D3A34277  14.049   8.626   4.977
 3058PAPC   D4A34278  14.165   8.497   5.355
 3058PAPC   C5A34279  14.619   8.415   5.462
 3058PAPC   C1B34280  14.907   8.744   4.438
 3058PAPC   C2B34281  14.840   9.047   4.731
 3058PAPC   C3B34282  14.573   9.294   4.969
 3058PAPC   C4B34283  14.184   9.251   5.298
 3059PAPC   NC334284  14.219   4.714   3.288
 3059PAPC   PO434285  14.398   4.390   3.212
 3059PAPC   GL134286  14.380   3.995   3.422
 3059PAPC   GL234287  14.109   3.945   3.480
 3059PAPC   C1A34288  14.480   4.078   3.739
 3059PAPC   D2A34289  14.715   4.170   4.020
 3059PAPC   D3A34290  14.868   3.941   4.324
 3059PAPC   D4A34291  14.840   3.825   4.742
 3059PAPC   C5A34292  14.922   3.721   5.161
 3059PAPC   C1B34293  14.024   3.872   3.846
 3059PAPC   C2B34294  13.957   3.947   4.298
 3059PAPC   C3B34295  13.915   4.030   4.768
 3059PAPC   C4B34296  13.900   3.878   5.268
 3060PAPC   NC334297  26.135  30.001   2.714
 3060PAPC   PO434298  26.126  30.278   2.962
 3060PAPC   GL134299  26.049  30.579   3.268
 3060PAPC   GL234300  26.208  30.429   3.455
 3060PAPC   C1A34301  25.706  30.663   3.273
 3060PAPC   D2A34302  25.423  30.889   3.374
 3060PAPC   D3A34303  25.459  31.307   3.553
 3060PAPC   D4A34304  25.255  31.471   3.916
 3060PAPC   C5A34305  25.222  31.405   4.386
 3060PAPC   C1B34306  26.217  30.466   3.819
 3060PAPC   C2B34307  26.243  30.581   4.207
 3060PAPC   C3B34308  26.233  30.835   4.650
 3060PAPC   C4B34309  26.071  31.053   5.060
 3061PAPC   NC334310   8.555   2.735   2.854
 3061PAPC   PO434311   8.535   2.473   3.137
 3061PAPC   GL134312   8.517   2.347   3.537
 3061PAPC   GL234313   8.383   2.567   3.638
 3061PAPC   C1A34314   8.850   2.352   3.713
 3061PAPC   D2A34315   9.125   2.419   3.946
 3061PAPC   D3A34316   9.169   2.298   4.410
 3061PAPC   D4A34317   9.094   1.964   4.706
 3061PAPC   C5A34318   9.340   1.661   4.838
 3061PAPC   C1B34319   8.589   2.474   3.983
 3061PAPC   C2B34320   8.610   2.344   4.380
 3061PAPC   C3B34321   8.547   2.412   4.880
 3061PAPC   C4B34322   8.426   2.449   5.302
 3062PAPC   NC334323  12.318  10.822   3.507
 3062PAPC   PO434324  12.557  10.954   3.228
 3062PAPC   GL134325  12.727  11.259   3.472
 3062PAPC   GL234326  12.508  11.309   3.652
 3062PAPC   C1A34327  12.743  11.590   3.395
 3062PAPC   D2A34328  12.646  11.943   3.599
 3062PAPC   D3A34329  12.909  11.918   4.006
 3062PAPC   D4A34330  12.904  11.954   4.440
 3062PAPC   C5A34331  13.021  11.973   4.847
 3062PAPC   C1B34332  12.495  11.566   3.945
 3062PAPC   C2B34333  12.584  11.602   4.321
 3062PAPC   C3B34334  12.536  11.736   4.764
 3062PAPC   C4B34335  12.676  11.867   5.235
 3063PAPC   NC334336   2.126  15.456   3.693
 3063PAPC   PO434337   2.025  15.483   4.049
 3063PAPC   GL134338   2.131  15.622   4.444
 3063PAPC   GL234339   1.862  15.601   4.545
 3063PAPC   C1A34340   2.416  15.698   4.678
 3063PAPC   D2A34341   2.587  16.016   4.871
 3063PAPC   D3A34342   2.524  16.327   5.156
 3063PAPC   D4A34343   2.515  16.551   4.831
 3063PAPC   C5A34344   2.838  16.721   4.529
 3063PAPC   C1B34345   2.010  15.683   4.890
 3063PAPC   C2B34346   2.225  15.777   5.155
 3063PAPC   C3B34347   2.362  15.572   5.583
 3063PAPC   C4B34348   2.347  15.700   6.047
 3064PAPC   NC334349   2.761   8.536   2.812
 3064PAPC   PO434350   2.797   8.382   3.184
 3064PAPC   GL134351   2.815   8.078   3.477
 3064PAPC   GL234352   2.564   7.945   3.519
 3064PAPC   C1A34353   2.967   8.174   3.840
 3064PAPC   D2A34354   2.985   8.388   4.149
 3064PAPC   D3A34355   3.371   8.540   4.370
 3064PAPC   D4A34356   3.737   8.298   4.524
 3064PAPC   C5A34357   3.469   8.221   4.967
 3064PAPC   C1B34358   2.544   8.015   3.862
 3064PAPC   C2B34359   2.571   8.182   4.219
 3064PAPC   C3B34360   2.418   8.229   4.677
 3064PAPC   C4B34361   2.485   8.225   5.144
 3065PAPC   NC334362  30.939  15.065   3.806
 3065PAPC   PO434363  31.316  14.988   3.832
 3065PAPC   GL134364  31.465  14.892   4.213
 3065PAPC   GL234365  31.788  14.882   4.208
 3065PAPC   C1A34366  31.394  15.170   4.438
 3065PAPC   D2A34367  31.250  15.457   4.732
 3065PAPC   D3A34368  31.309  15.403   5.209
 3065PAPC   D4A34369  31.246  14.937   5.235
 3065PAPC   C5A34370  31.153  14.667   5.667
 3065PAPC   C1B34371  31.793  14.673   4.537
 3065PAPC   C2B34372  31.973  14.593   4.894
 3065PAPC   C3B34373  32.322  14.313   5.201
 3065PAPC   C4B34374  32.542  14.002   5.574
 3066PAPC   NC334375  16.945   7.487   3.818
 3066PAPC   PO434376  16.985   7.899   3.687
 3066PAPC   GL134377  17.039   8.218   3.941
 3066PAPC   GL234378  16.950   8.051   4.136
 3066PAPC   C1A34379  17.174   8.559   4.088
 3066PAPC   D2A34380  17.035   8.912   4.274
 3066PAPC   D3A34381  16.797   9.306   4.285
 3066PAPC   D4A34382  16.818   9.432   4.736
 3066PAPC   C5A34383  16.793   9.487   5.210
 3066PAPC   C1B34384  17.013   8.269   4.413
 3066PAPC   C2B34385  17.110   8.472   4.773
 3066PAPC   C3B34386  16.967   8.423   5.262
 3066PAPC   C4B34387  16.636   8.696   5.485
 3067PAPC   NC334388  12.159  31.200   3.425
 3067PAPC   PO434389  11.965  30.893   3.224
 3067PAPC   GL134390  11.601  30.752   3.471
 3067PAPC   GL234391  11.743  30.984   3.539
 3067PAPC   C1A34392  11.735  30.462   3.660
 3067PAPC   D2A34393  11.948  30.145   3.710
 3067PAPC   D3A34394  11.690  29.761   3.892
 3067PAPC   D4A34395  11.405  29.383   3.972
 3067PAPC   C5A34396  10.962  29.328   3.706
 3067PAPC   C1B34397  11.633  31.251   3.785
 3067PAPC   C2B34398  11.473  31.132   4.181
 3067PAPC   C3B34399  11.244  30.805   4.467
 3067PAPC   C4B34400  11.006  30.412   4.504
 3068PAPC   NC334401  35.736  25.806   3.903
 3068PAPC   PO434402  35.340  25.780   4.001
 3068PAPC   GL134403  35.169  25.649   4.403
 3068PAPC   GL234404  34.806  25.671   4.253
 3068PAPC   C1A34405  35.272  25.853   4.675
 3068PAPC   D2A34406  35.390  26.019   5.013
 3068PAPC   D3A34407  35.345  25.881   5.397
 3068PAPC   D4A34408  35.376  25.558   5.673
 3068PAPC   C5A34409  35.114  25.817   6.019
 3068PAPC   C1B34410  34.508  25.555   4.456
 3068PAPC   C2B34411  34.266  25.315   4.628
 3068PAPC   C3B34412  33.962  25.109   5.059
 3068PAPC   C4B34413  33.651  25.082   5.432
 3069PAPC   NC334414   3.246  15.692   3.511
 3069PAPC   PO434415   2.886  15.762   3.640
 3069PAPC   GL134416   3.001  15.908   4.004
 3069PAPC   GL234417   3.265  16.023   3.969
 3069PAPC   C1A34418   2.791  15.829   4.248
 3069PAPC   D2A34419   2.811  15.593   4.605
 3069PAPC   D3A34420   2.703  15.443   5.048
 3069PAPC   D4A34421   2.880  15.460   5.457
 3069PAPC   C5A34422   2.777  15.713   5.800
 3069PAPC   C1B34423   3.390  16.113   4.289
 3069PAPC   C2B34424   3.531  16.001   4.633
 3069PAPC   C3B34425   3.865  16.110   4.983
 3069PAPC   C4B34426   4.356  16.012   5.130
 3070PAPC   NC334427   3.684  23.496   4.025
 3070PAPC   PO434428   3.287  23.528   4.036
 3070PAPC   GL134429   3.131  23.753   4.322
 3070PAPC   GL234430   2.922  23.750   4.361
 3070PAPC   C1A34431   3.280  23.922   4.659
 3070PAPC   D2A34432   3.617  23.919   4.879
 3070PAPC   D3A34433   3.374  24.150   5.225
 3070PAPC   D4A34434   3.040  24.393   5.445
 3070PAPC   C5A34435   3.039  24.827   5.601
 3070PAPC   C1B34436   3.036  23.606   4.699
 3070PAPC   C2B34437   3.260  23.415   4.982
 3070PAPC   C3B34438   3.645  23.211   5.151
 3070PAPC   C4B34439   3.885  22.736   5.206
 3071PAPC   NC334440  11.172  34.976   2.772
 3071PAPC   PO434441  11.231  34.706   3.081
 3071PAPC   GL134442  11.254  34.657   3.547
 3071PAPC   GL234443  11.482  34.823   3.578
 3071PAPC   C1A34444  10.983  34.535   3.750
 3071PAPC   D2A34445  10.917  34.247   4.074
 3071PAPC   D3A34446  10.854  34.475   4.455
 3071PAPC   D4A34447  10.847  34.562   4.868
 3071PAPC   C5A34448  11.058  34.328   5.208
 3071PAPC   C1B34449  11.332  34.894   3.881
 3071PAPC   C2B34450  11.196  35.074   4.197
 3071PAPC   C3B34451  11.277  34.956   4.638
 3071PAPC   C4B34452  11.437  34.660   5.040
 3072PAPC   NC334453   4.621  12.783   3.970
 3072PAPC   PO434454   4.664  12.465   3.767
 3072PAPC   GL134455   4.566  12.223   4.098
 3072PAPC   GL234456   4.567  12.398   4.276
 3072PAPC   C1A34457   4.590  11.891   4.311
 3072PAPC   D2A34458   4.748  11.534   4.279
 3072PAPC   D3A34459   4.858  11.467   4.755
 3072PAPC   D4A34460   5.172  11.546   5.163
 3072PAPC   C5A34461   5.608  11.621   5.150
 3072PAPC   C1B34462   4.588  12.322   4.657
 3072PAPC   C2B34463   4.556  12.421   5.042
 3072PAPC   C3B34464   4.674  12.625   5.509
 3072PAPC   C4B34465   4.722  12.969   5.849
 3073PAPC   NC334466  22.330  22.307   3.409
 3073PAPC   PO434467  22.340  22.553   3.719
 3073PAPC   GL134468  22.040  22.679   3.982
 3073PAPC   GL234469  22.269  22.600   4.182
 3073PAPC   C1A34470  21.824  22.517   4.192
 3073PAPC   D2A34471  21.622  22.222   4.352
 3073PAPC   D3A34472  21.939  22.284   4.667
 3073PAPC   D4A34473  21.784  22.503   5.010
 3073PAPC   C5A34474  21.440  22.246   4.868
 3073PAPC   C1B34475  22.216  22.683   4.567
 3073PAPC   C2B34476  22.341  22.713   4.959
 3073PAPC   C3B34477  22.492  22.909   5.381
 3073PAPC   C4B34478  22.643  23.159   5.759
 3074PAPC   NC334479  35.793  10.695   3.362
 3074PAPC   PO434480  35.800  10.364   3.100
 3074PAPC   GL134481  35.909  10.183   3.542
 3074PAPC   GL234482  35.629  10.290   3.665
 3074PAPC   C1A34483  36.090   9.931   3.733
 3074PAPC   D2A34484  36.144   9.525   3.781
 3074PAPC   D3A34485  36.283   9.543   4.166
 3074PAPC   D4A34486  36.061   9.654   4.555
 3074PAPC   C5A34487  36.020  10.124   4.614
 3074PAPC   C1B34488  35.504  10.276   3.954
 3074PAPC   C2B34489  35.397  10.279   4.315
 3074PAPC   C3B34490  35.370  10.195   4.809
 3074PAPC   C4B34491  35.412  10.082   5.262
 3075PAPC   NC334492  16.232  34.386   2.503
 3075PAPC   PO434493  16.360  34.567   2.872
 3075PAPC   GL134494  16.345  34.694   3.312
 3075PAPC   GL234495  16.515  34.436   3.308
 3075PAPC   C1A34496  16.048  34.775   3.522
 3075PAPC   D2A34497  15.741  34.969   3.605
 3075PAPC   D3A34498  15.537  34.668   3.373
 3075PAPC   D4A34499  15.830  34.424   3.677
 3075PAPC   C5A34500  15.790  34.252   4.119
 3075PAPC   C1B34501  16.743  34.380   3.593
 3075PAPC   C2B34502  16.822  34.476   3.993
 3075PAPC   C3B34503  16.799  34.255   4.432
 3075PAPC   C4B34504  16.843  33.938   4.785
 3076PAPC   NC334505   9.814   8.641   3.578
 3076PAPC   PO434506  10.148   8.438   3.614
 3076PAPC   GL134507  10.105   8.307   3.958
 3076PAPC   GL234508  10.361   8.343   4.103
 3076PAPC   C1A34509  10.028   8.059   4.304
 3076PAPC   D2A34510  10.112   8.127   4.715
 3076PAPC   D3A34511   9.977   7.742   4.934
 3076PAPC   D4A34512  10.351   7.876   5.128
 3076PAPC   C5A34513  10.318   8.150   5.509
 3076PAPC   C1B34514  10.489   8.443   4.464
 3076PAPC   C2B34515  10.516   8.352   4.843
 3076PAPC   C3B34516  10.697   8.487   5.268
 3076PAPC   C4B34517  10.900   8.724   5.683
 3077PAPC   NC334518  23.432  24.789   2.773
 3077PAPC   PO434519  23.282  24.447   2.967
 3077PAPC   GL134520  23.264  24.475   3.381
 3077PAPC   GL234521  23.443  24.220   3.376
 3077PAPC   C1A34522  23.066  24.394   3.695
 3077PAPC   D2A34523  23.201  24.254   3.988
 3077PAPC   D3A34524  23.115  23.916   4.207
 3077PAPC   D4A34525  23.062  24.005   4.584
 3077PAPC   C5A34526  23.390  24.052   4.973
 3077PAPC   C1B34527  23.558  24.227   3.732
 3077PAPC   C2B34528  23.713  24.234   4.107
 3077PAPC   C3B34529  23.776  23.996   4.527
 3077PAPC   C4B34530  23.957  23.792   4.858
 3078PAPC   NC334531  13.478  22.879   2.972
 3078PAPC   PO434532  13.563  22.804   3.346
 3078PAPC   GL134533  13.742  22.936   3.658
 3078PAPC   GL234534  14.017  22.940   3.655
 3078PAPC   C1A34535  13.663  23.053   4.016
 3078PAPC   D2A34536  13.487  22.880   4.326
 3078PAPC   D3A34537  13.383  22.603   4.614
 3078PAPC   D4A34538  13.362  22.606   5.103
 3078PAPC   C5A34539  13.026  22.928   5.322
 3078PAPC   C1B34540  14.146  22.774   3.922
 3078PAPC   C2B34541  14.175  22.655   4.280
 3078PAPC   C3B34542  14.222  22.573   4.754
 3078PAPC   C4B34543  14.292  22.458   5.220
 3079PAPC   NC334544   1.354  28.908   3.859
 3079PAPC   PO434545   1.668  29.016   3.624
 3079PAPC   GL134546   1.727  29.313   4.006
 3079PAPC   GL234547   1.968  29.105   4.004
 3079PAPC   C1A34548   1.589  29.325   4.348
 3079PAPC   D2A34549   1.443  29.067   4.607
 3079PAPC   D3A34550   1.400  28.724   4.864
 3079PAPC   D4A34551   1.258  28.398   4.615
 3079PAPC   C5A34552   0.825  28.311   4.780
 3079PAPC   C1B34553   2.074  28.995   4.357
 3079PAPC   C2B34554   1.964  29.062   4.725
 3079PAPC   C3B34555   1.616  29.261   5.013
 3079PAPC   C4B34556   1.290  29.178   5.362
 3080PAPC   NC334557  33.678   4.177   3.083
 3080PAPC   PO434558  34.029   4.256   3.238
 3080PAPC   GL134559  34.289   4.001   3.632
 3080PAPC   GL234560  34.198   4.318   3.688
 3080PAPC   C1A34561  34.278   3.862   3.968
 3080PAPC   D2A34562  34.375   3.742   4.334
 3080PAPC   D3A34563  34.268   3.980   4.749
 3080PAPC   D4A34564  34.280   4.366   5.007
 3080PAPC   C5A34565  34.132   4.759   5.079
 3080PAPC   C1B34566  33.930   4.294   3.928
 3080PAPC   C2B34567  33.558   4.193   4.094
 3080PAPC   C3B34568  33.494   4.141   4.561
 3080PAPC   C4B34569  33.692   3.864   4.858
 3081PAPC   NC334570  10.239  12.717   3.076
 3081PAPC   PO434571  10.341  12.588   3.434
 3081PAPC   GL134572  10.335  12.434   3.860
 3081PAPC   GL234573  10.017  12.532   3.954
 3081PAPC   C1A34574  10.592  12.333   4.123
 3081PAPC   D2A34575  10.979  12.380   4.158
 3081PAPC   D3A34576  11.276  12.264   4.507
 3081PAPC   D4A34577  11.166  12.542   4.873
 3081PAPC   C5A34578  11.143  12.551   5.338
 3081PAPC   C1B34579   9.896  12.345   4.269
 3081PAPC   C2B34580   9.674  12.159   4.598
 3081PAPC   C3B34581   9.723  11.820   4.941
 3081PAPC   C4B34582  10.047  11.666   5.247
 3082PAPC   NC334583  26.410  30.748   2.679
 3082PAPC   PO434584  26.454  30.683   3.065
 3082PAPC   GL134585  26.771  30.641   3.375
 3082PAPC   GL234586  26.534  30.713   3.594
 3082PAPC   C1A34587  27.050  30.780   3.490
 3082PAPC   D2A34588  27.137  31.169   3.547
 3082PAPC   D3A34589  26.816  31.238   3.874
 3082PAPC   D4A34590  27.008  31.229   4.322
 3082PAPC   C5A34591  27.284  31.453   4.588
 3082PAPC   C1B34592  26.616  30.774   3.945
 3082PAPC   C2B34593  26.788  30.752   4.353
 3082PAPC   C3B34594  26.857  30.867   4.695
 3082PAPC   C4B34595  27.119  31.202   4.929
 3083PAPC   NC334596  29.289  33.311   3.018
 3083PAPC   PO434597  29.573  33.014   3.055
 3083PAPC   GL134598  29.567  32.773   3.358
 3083PAPC   GL234599  29.500  32.875   3.588
 3083PAPC   C1A34600  29.795  32.598   3.552
 3083PAPC   D2A34601  29.883  32.362   3.840
 3083PAPC   D3A34602  29.859  32.253   4.293
 3083PAPC   D4A34603  29.754  32.494   4.668
 3083PAPC   C5A34604  29.597  32.176   5.017
 3083PAPC   C1B34605  29.414  32.716   3.885
 3083PAPC   C2B34606  29.406  32.378   4.136
 3083PAPC   C3B34607  29.387  31.978   4.385
 3083PAPC   C4B34608  29.406  31.563   4.590
 3084PAPC   NC334609  29.010   6.147   3.522
 3084PAPC   PO434610  29.366   5.985   3.492
 3084PAPC   GL134611  29.208   6.005   3.931
 3084PAPC   GL234612  29.497   5.845   3.990
 3084PAPC   C1A34613  29.189   5.816   4.273
 3084PAPC   D2A34614  29.173   5.934   4.655
 3084PAPC   D3A34615  29.082   6.325   4.844
 3084PAPC   D4A34616  28.913   6.583   5.173
 3084PAPC   C5A34617  29.123   6.956   4.921
 3084PAPC   C1B34618  29.625   5.819   4.374
 3084PAPC   C2B34619  29.569   5.722   4.780
 3084PAPC   C3B34620  29.219   5.539   5.039
 3084PAPC   C4B34621  28.833   5.494   5.447
 3085PAPC   NC334622  32.447  28.252   3.683
 3085PAPC   PO434623  32.468  27.881   3.508
 3085PAPC   GL134624  32.509  27.629   3.840
 3085PAPC   GL234625  32.624  27.922   4.029
 3085PAPC   C1A34626  32.341  27.392   4.076
 3085PAPC   D2A34627  32.415  27.024   4.092
 3085PAPC   D3A34628  32.355  26.664   4.340
 3085PAPC   D4A34629  32.442  26.476   4.784
 3085PAPC   C5A34630  32.273  26.087   4.965
 3085PAPC   C1B34631  32.727  27.943   4.370
 3085PAPC   C2B34632  32.947  28.042   4.705
 3085PAPC   C3B34633  33.064  28.266   5.110
 3085PAPC   C4B34634  32.819  28.510   5.486
 3086PAPC   NC334635   4.986  24.163   2.998
 3086PAPC   PO434636   4.869  24.449   3.254
 3086PAPC   GL134637   5.108  24.238   3.655
 3086PAPC   GL234638   4.953  24.411   3.867
 3086PAPC   C1A34639   5.404  24.177   3.842
 3086PAPC   D2A34640   5.790  24.142   3.972
 3086PAPC   D3A34641   5.845  23.908   4.379
 3086PAPC   D4A34642   6.069  24.141   4.653
 3086PAPC   C5A34643   6.071  24.282   5.131
 3086PAPC   C1B34644   4.826  24.237   4.174
 3086PAPC   C2B34645   4.886  24.154   4.590
 3086PAPC   C3B34646   5.165  24.413   4.922
 3086PAPC   C4B34647   5.530  24.700   4.771
 3087PAPC   NC334648  16.678  12.412   3.405
 3087PAPC   PO434649  16.361  12.637   3.377
 3087PAPC   GL134650  16.199  12.615   3.826
 3087PAPC   GL234651  16.073  12.346   3.834
 3087PAPC   C1A34652  16.462  12.687   4.101
 3087PAPC   D2A34653  16.776  12.789   4.325
 3087PAPC   D3A34654  16.801  12.933   4.819
 3087PAPC   D4A34655  16.457  12.927   5.110
 3087PAPC   C5A34656  16.523  12.946   5.551
 3087PAPC   C1B34657  16.125  12.189   4.118
 3087PAPC   C2B34658  15.944  12.255   4.462
 3087PAPC   C3B34659  15.690  12.227   4.882
 3087PAPC   C4B34660  15.519  11.872   5.224
 3088PAPC   NC334661  16.603   6.909   3.399
 3088PAPC   PO434662  16.546   7.240   3.668
 3088PAPC   GL134663  16.780   7.047   4.008
 3088PAPC   GL234664  16.606   7.297   4.179
 3088PAPC   C1A34665  17.160   7.083   4.008
 3088PAPC   D2A34666  17.530   7.131   4.174
 3088PAPC   D3A34667  17.513   7.332   4.577
 3088PAPC   D4A34668  17.399   7.201   4.993
 3088PAPC   C5A34669  17.760   6.935   5.206
 3088PAPC   C1B34670  16.554   7.382   4.577
 3088PAPC   C2B34671  16.420   7.216   4.908
 3088PAPC   C3B34672  16.331   7.148   5.377
 3088PAPC   C4B34673  16.020   7.257   5.712
 3089PAPC   NC334674  15.051  31.585   3.680
 3089PAPC   PO434675  15.310  31.801   3.460
 3089PAPC   GL134676  15.539  31.980   3.780
 3089PAPC   GL234677  15.314  31.875   3.964
 3089PAPC   C1A34678  15.710  32.010   4.105
 3089PAPC   D2A34679  15.871  31.975   4.477
 3089PAPC   D3A34680  15.900  31.547   4.669
 3089PAPC   D4A34681  15.604  31.188   4.386
 3089PAPC   C5A34682  15.791  31.025   3.986
 3089PAPC   C1B34683  15.321  32.162   4.263
 3089PAPC   C2B34684  15.498  32.392   4.579
 3089PAPC   C3B34685  15.619  32.805   4.777
 3089PAPC   C4B34686  15.847  33.241   4.701
 3090PAPC   NC334687  24.769  11.700   3.857
 3090PAPC   PO434688  24.793  11.306   3.746
 3090PAPC   GL134689  25.067  11.203   4.143
 3090PAPC   GL234690  24.802  11.047   4.155
 3090PAPC   C1A34691  25.203  11.258   4.482
 3090PAPC   D2A34692  25.513  11.235   4.770
 3090PAPC   D3A34693  25.810  11.514   5.010
 3090PAPC   D4A34694  25.892  11.769   5.350
 3090PAPC   C5A34695  26.068  11.798   5.760
 3090PAPC   C1B34696  25.008  10.853   4.449
 3090PAPC   C2B34697  25.126  10.875   4.854
 3090PAPC   C3B34698  25.423  10.566   5.129
 3090PAPC   C4B34699  25.847  10.297   5.288
 3091PAPC   NC334700  35.625  19.058   3.768
 3091PAPC   PO434701  35.793  18.745   3.767
 3091PAPC   GL134702  36.018  18.841   4.157
 3091PAPC   GL234703  35.790  18.994   4.252
 3091PAPC   C1A34704  36.154  18.721   4.485
 3091PAPC   D2A34705  36.494  18.770   4.626
 3091PAPC   D3A34706  36.365  19.080   4.940
 3091PAPC   D4A34707  36.360  18.949   5.340
 3091PAPC   C5A34708  36.702  18.667   5.515
 3091PAPC   C1B34709  35.675  18.705   4.436
 3091PAPC   C2B34710  35.481  18.497   4.775
 3091PAPC   C3B34711  35.576  18.317   5.184
 3091PAPC   C4B34712  35.525  18.349   5.705
 3092PAPC   NC334713  15.574   7.211   3.289
 3092PAPC   PO434714  15.207   7.309   3.375
 3092PAPC   GL134715  15.176   7.130   3.780
 3092PAPC   GL234716  15.528   7.159   3.761
 3092PAPC   C1A34717  15.180   7.017   4.126
 3092PAPC   D2A34718  15.038   7.232   4.393
 3092PAPC   D3A34719  15.118   7.690   4.432
 3092PAPC   D4A34720  15.119   7.996   4.782
 3092PAPC   C5A34721  14.975   8.450   4.785
 3092PAPC   C1B34722  15.710   7.075   4.040
 3092PAPC   C2B34723  15.981   6.884   4.327
 3092PAPC   C3B34724  15.977   6.627   4.806
 3092PAPC   C4B34725  15.916   6.876   5.290
 3093PAPC   NC334726  35.352  10.156   3.342
 3093PAPC   PO434727  35.283  10.555   3.452
 3093PAPC   GL134728  34.965  10.713   3.717
 3093PAPC   GL234729  35.081  10.547   3.916
 3093PAPC   C1A34730  34.617  10.849   3.704
 3093PAPC   D2A34731  34.244  10.837   3.876
 3093PAPC   D3A34732  34.228  10.449   3.628
 3093PAPC   D4A34733  34.192   9.995   3.723
 3093PAPC   C5A34734  33.986   9.531   3.556
 3093PAPC   C1B34735  34.923  10.624   4.249
 3093PAPC   C2B34736  34.851  10.404   4.604
 3093PAPC   C3B34737  34.771  10.143   4.983
 3093PAPC   C4B34738  34.581   9.892   5.343
 3094PAPC   NC334739  17.868  11.280   3.750
 3094PAPC   PO434740  18.054  11.304   4.091
 3094PAPC   GL134741  17.887  11.087   4.457
 3094PAPC   GL234742  18.005  11.347   4.542
 3094PAPC   C1A34743  18.074  10.980   4.801
 3094PAPC   D2A34744  17.930  10.641   4.949
 3094PAPC   D3A34745  17.483  10.721   4.981
 3094PAPC   D4A34746  17.121  10.930   5.220
 3094PAPC   C5A34747  17.052  10.820   4.743
 3094PAPC   C1B34748  17.842  11.572   4.839
 3094PAPC   C2B34749  17.830  11.607   5.254
 3094PAPC   C3B34750  17.698  11.338   5.538
 3094PAPC   C4B34751  17.667  10.924   5.844
 3095PAPC   NC334752  29.247  28.747   3.195
 3095PAPC   PO434753  29.175  28.359   3.300
 3095PAPC   GL134754  29.240  28.297   3.753
 3095PAPC   GL234755  29.084  28.032   3.822
 3095PAPC   C1A34756  29.027  28.473   4.052
 3095PAPC   D2A34757  28.968  28.639   4.413
 3095PAPC   D3A34758  29.184  29.010   4.591
 3095PAPC   D4A34759  29.051  29.254   4.893
 3095PAPC   C5A34760  29.318  29.441   5.205
 3095PAPC   C1B34761  28.868  28.052   4.176
 3095PAPC   C2B34762  28.854  28.166   4.609
 3095PAPC   C3B34763  28.864  28.521   4.934
 3095PAPC   C4B34764  29.099  28.839   5.199
 3096PAPC   NC334765  26.123  35.211   3.323
 3096PAPC   PO434766  25.803  35.262   3.541
 3096PAPC   GL134767  25.727  35.033   3.861
 3096PAPC   GL234768  25.717  35.251   4.040
 3096PAPC   C1A34769  25.558  34.727   4.071
 3096PAPC   D2A34770  25.458  34.702   4.472
 3096PAPC   D3A34771  25.552  34.536   4.901
 3096PAPC   D4A34772  25.719  34.173   5.090
 3096PAPC   C5A34773  25.250  34.200   5.051
 3096PAPC   C1B34774  25.693  35.140   4.374
 3096PAPC   C2B34775  25.639  35.027   4.800
 3096PAPC   C3B34776  25.474  34.962   5.218
 3096PAPC   C4B34777  25.479  34.474   5.380
 3097PAPC   NC334778  35.791  15.808   3.465
 3097PAPC   PO434779  35.898  15.926   3.860
 3097PAPC   GL134780  35.645  15.837   4.139
 3097PAPC   GL234781  35.759  16.118   4.215
 3097PAPC   C1A34782  35.507  15.643   4.433
 3097PAPC   D2A34783  35.577  15.354   4.695
 3097PAPC   D3A34784  35.557  15.082   5.022
 3097PAPC   D4A34785  35.853  14.941   5.274
 3097PAPC   C5A34786  35.693  14.750   5.670
 3097PAPC   C1B34787  35.893  15.999   4.523
 3097PAPC   C2B34788  36.136  16.064   4.816
 3097PAPC   C3B34789  36.135  15.849   5.207
 3097PAPC   C4B34790  35.958  15.411   5.131
 3098PAPC   NC334791   6.758  11.344   3.484
 3098PAPC   PO434792   7.042  11.081   3.442
 3098PAPC   GL134793   6.841  10.961   3.756
 3098PAPC   GL234794   7.010  11.216   3.852
 3098PAPC   C1A34795   6.991  10.852   4.045
 3098PAPC   D2A34796   7.201  10.876   4.412
 3098PAPC   D3A34797   7.621  10.700   4.487
 3098PAPC   D4A34798   7.814  10.320   4.299
 3098PAPC   C5A34799   8.271  10.155   4.199
 3098PAPC   C1B34800   6.782  11.530   3.922
 3098PAPC   C2B34801   6.829  11.766   4.221
 3098PAPC   C3B34802   6.719  12.055   4.608
 3098PAPC   C4B34803   6.848  12.352   4.995
 3099PAPC   NC334804  34.646  22.318   3.558
 3099PAPC   PO434805  34.445  21.983   3.689
 3099PAPC   GL134806  34.497  21.735   4.043
 3099PAPC   GL234807  34.683  21.880   4.178
 3099PAPC   C1A34808  34.334  21.772   4.369
 3099PAPC   D2A34809  33.946  21.652   4.428
 3099PAPC   D3A34810  33.631  21.900   4.462
 3099PAPC   D4A34811  33.540  22.065   4.897
 3099PAPC   C5A34812  33.872  22.456   4.887
 3099PAPC   C1B34813  34.719  21.881   4.582
 3099PAPC   C2B34814  34.723  21.873   5.002
 3099PAPC   C3B34815  34.764  21.974   5.434
 3099PAPC   C4B34816  34.821  22.249   5.816
 3100PAPC   NC334817   5.368  32.667   3.279
 3100PAPC   PO434818   5.733  32.876   3.189
 3100PAPC   GL134819   5.876  33.037   3.527
 3100PAPC   GL234820   5.595  33.013   3.640
 3100PAPC   C1A34821   6.044  32.998   3.853
 3100PAPC   D2A34822   6.093  33.020   4.247
 3100PAPC   D3A34823   6.049  33.183   4.626
 3100PAPC   D4A34824   6.124  32.996   5.035
 3100PAPC   C5A34825   6.598  32.982   5.122
 3100PAPC   C1B34826   5.597  33.227   3.946
 3100PAPC   C2B34827   5.676  33.365   4.359
 3100PAPC   C3B34828   5.676  33.398   4.868
 3100PAPC   C4B34829   5.890  33.397   5.249
 3101PAPC   NC334830  25.944  34.443   3.272
 3101PAPC   PO434831  25.782  34.807   3.341
 3101PAPC   GL134832  26.105  34.851   3.702
 3101PAPC   GL234833  25.961  34.684   3.796
 3101PAPC   C1A34834  26.255  35.103   3.927
 3101PAPC   D2A34835  26.578  35.265   4.020
 3101PAPC   D3A34836  26.666  35.333   4.460
 3101PAPC   D4A34837  26.971  35.360   4.776
 3101PAPC   C5A34838  26.953  35.469   5.221
 3101PAPC   C1B34839  25.950  34.743   4.193
 3101PAPC   C2B34840  26.036  34.603   4.548
 3101PAPC   C3B34841  26.055  34.609   5.033
 3101PAPC   C4B34842  25.935  34.646   5.437
 3102PAPC   NC334843  26.048  25.528   3.347
 3102PAPC   PO434844  26.023  25.925   3.255
 3102PAPC   GL134845  26.217  26.096   3.608
 3102PAPC   GL234846  26.285  26.370   3.365
 3102PAPC   C1A34847  26.120  26.005   3.941
 3102PAPC   D2A34848  26.142  26.053   4.359
 3102PAPC   D3A34849  26.283  25.951   4.720
 3102PAPC   D4A34850  26.574  25.646   4.984
 3102PAPC   C5A34851  26.970  25.353   4.944
 3102PAPC   C1B34852  26.314  26.498   3.742
 3102PAPC   C2B34853  26.455  26.410   4.113
 3102PAPC   C3B34854  26.401  26.486   4.585
 3102PAPC   C4B34855  26.220  26.467   5.039
 3103PAPC   NC334856   8.712   4.834   2.973
 3103PAPC   PO434857   8.678   4.856   3.381
 3103PAPC   GL134858   8.889   4.865   3.806
 3103PAPC   GL234859   8.856   4.553   3.617
 3103PAPC   C1A34860   9.112   5.061   4.021
 3103PAPC   D2A34861   9.345   5.038   4.302
 3103PAPC   D3A34862   9.469   4.999   4.734
 3103PAPC   D4A34863   9.084   4.809   4.690
 3103PAPC   C5A34864   8.862   4.421   4.729
 3103PAPC   C1B34865   8.992   4.323   3.837
 3103PAPC   C2B34866   8.939   4.152   4.192
 3103PAPC   C3B34867   9.157   3.977   4.613
 3103PAPC   C4B34868   9.501   3.584   4.646
 3104PAPC   NC334869  21.179   6.464   3.226
 3104PAPC   PO434870  20.794   6.351   3.224
 3104PAPC   GL134871  20.725   6.332   3.671
 3104PAPC   GL234872  21.030   6.515   3.717
 3104PAPC   C1A34873  20.844   5.976   3.714
 3104PAPC   D2A34874  20.760   5.628   3.610
 3104PAPC   D3A34875  20.697   5.338   3.925
 3104PAPC   D4A34876  20.880   5.454   4.267
 3104PAPC   C5A34877  20.728   5.243   4.667
 3104PAPC   C1B34878  20.956   6.354   4.034
 3104PAPC   C2B34879  20.586   6.255   4.089
 3104PAPC   C3B34880  20.190   6.194   4.385
 3104PAPC   C4B34881  19.995   5.889   4.752
 3105PAPC   NC334882   9.224  35.826   3.538
 3105PAPC   PO434883   9.346  35.582   3.275
 3105PAPC   GL134884   9.546  35.470   3.609
 3105PAPC   GL234885   9.354  35.314   3.663
 3105PAPC   C1A34886   9.616  35.581   3.969
 3105PAPC   D2A34887   9.836  35.782   4.211
 3105PAPC   D3A34888   9.806  35.869   4.652
 3105PAPC   D4A34889   9.509  35.903   4.988
 3105PAPC   C5A34890   9.597  35.637   5.391
 3105PAPC   C1B34891   9.235  35.384   4.032
 3105PAPC   C2B34892   9.106  35.456   4.422
 3105PAPC   C3B34893   9.089  35.772   4.783
 3105PAPC   C4B34894   9.084  36.245   4.766
 3106PAPC   NC334895   8.335   0.155   2.635
 3106PAPC   PO434896   8.130  -0.101   2.861
 3106PAPC   GL134897   8.196  -0.098   3.269
 3106PAPC   GL234898   8.348  -0.318   3.263
 3106PAPC   C1A34899   8.225   0.156   3.515
 3106PAPC   D2A34900   8.321   0.230   3.860
 3106PAPC   D3A34901   8.702   0.377   3.906
 3106PAPC   D4A34902   8.976   0.648   4.041
 3106PAPC   C5A34903   9.373   0.531   4.248
 3106PAPC   C1B34904   8.334  -0.430   3.652
 3106PAPC   C2B34905   8.297  -0.519   4.028
 3106PAPC   C3B34906   7.940  -0.553   4.307
 3106PAPC   C4B34907   7.456  -0.581   4.324
 3107PAPC   NC334908  21.035  24.423   3.886
 3107PAPC   PO434909  20.751  24.196   3.713
 3107PAPC   GL134910  20.582  24.036   4.125
 3107PAPC   GL234911  20.889  24.064   4.167
 3107PAPC   C1A34912  20.372  24.136   4.393
 3107PAPC   D2A34913  20.045  24.079   4.642
 3107PAPC   D3A34914  20.266  23.969   5.066
 3107PAPC   D4A34915  20.690  23.957   5.293
 3107PAPC   C5A34916  20.915  24.332   5.396
 3107PAPC   C1B34917  20.961  23.949   4.463
 3107PAPC   C2B34918  21.271  23.936   4.735
 3107PAPC   C3B34919  21.531  24.113   5.113
 3107PAPC   C4B34920  21.890  23.965   5.391
 3108PAPC   NC334921   7.156  25.054   3.263
 3108PAPC   PO434922   7.567  24.960   3.182
 3108PAPC   GL134923   7.681  25.070   3.599
 3108PAPC   GL234924   7.647  24.832   3.721
 3108PAPC   C1A34925   7.949  25.269   3.760
 3108PAPC   D2A34926   8.305  25.462   3.828
 3108PAPC   D3A34927   8.493  25.632   4.223
 3108PAPC   D4A34928   8.690  26.021   4.338
 3108PAPC   C5A34929   8.684  25.736   4.719
 3108PAPC   C1B34930   7.516  24.908   4.080
 3108PAPC   C2B34931   7.357  24.834   4.493
 3108PAPC   C3B34932   7.053  24.912   4.871
 3108PAPC   C4B34933   7.310  24.467   4.918
 3109PAPC   NC334934  26.660  21.485   3.160
 3109PAPC   PO434935  27.015  21.327   3.296
 3109PAPC   GL134936  26.919  21.145   3.669
 3109PAPC   GL234937  26.838  21.411   3.794
 3109PAPC   C1A34938  26.759  20.832   3.807
 3109PAPC   D2A34939  26.531  20.566   4.007
 3109PAPC   D3A34940  26.409  20.209   4.261
 3109PAPC   D4A34941  26.225  20.034   4.573
 3109PAPC   C5A34942  26.463  19.991   4.967
 3109PAPC   C1B34943  26.886  21.446   4.190
 3109PAPC   C2B34944  27.016  21.338   4.535
 3109PAPC   C3B34945  27.200  21.194   4.969
 3109PAPC   C4B34946  27.486  20.923   5.321
 3110PAPC   NC334947   3.569  19.717   3.230
 3110PAPC   PO434948   3.179  19.676   3.221
 3110PAPC   GL134949   2.986  19.587   3.560
 3110PAPC   GL234950   3.235  19.672   3.732
 3110PAPC   C1A34951   2.830  19.266   3.682
 3110PAPC   D2A34952   2.549  19.111   3.864
 3110PAPC   D3A34953   2.299  19.146   4.191
 3110PAPC   D4A34954   2.305  19.120   4.594
 3110PAPC   C5A34955   2.178  18.975   5.008
 3110PAPC   C1B34956   3.085  19.488   4.035
 3110PAPC   C2B34957   2.809  19.472   4.388
 3110PAPC   C3B34958   2.734  19.400   4.854
 3110PAPC   C4B34959   2.478  19.246   5.265
 3111PAPC   NC334960  24.609  29.014   3.137
 3111PAPC   PO434961  24.878  28.712   3.185
 3111PAPC   GL134962  24.826  28.697   3.659
 3111PAPC   GL234963  25.036  28.461   3.588
 3111PAPC   C1A34964  24.827  29.033   3.650
 3111PAPC   D2A34965  25.085  29.202   3.883
 3111PAPC   D3A34966  25.353  29.075   4.250
 3111PAPC   D4A34967  25.257  28.981   4.669
 3111PAPC   C5A34968  24.940  28.681   4.519
 3111PAPC   C1B34969  25.052  28.263   3.879
 3111PAPC   C2B34970  25.094  28.202   4.272
 3111PAPC   C3B34971  25.029  28.206   4.763
 3111PAPC   C4B34972  24.968  28.258   5.205
 3112PAPC   NC334973   4.218  17.902   3.395
 3112PAPC   PO434974   3.894  18.172   3.286
 3112PAPC   GL134975   3.723  18.254   3.722
 3112PAPC   GL234976   4.062  18.224   3.750
 3112PAPC   C1A34977   3.577  18.023   4.016
 3112PAPC   D2A34978   3.373  17.799   4.252
 3112PAPC   D3A34979   3.095  17.902   4.588
 3112PAPC   D4A34980   2.965  17.861   4.973
 3112PAPC   C5A34981   2.899  17.934   5.489
 3112PAPC   C1B34982   4.316  18.079   3.813
 3112PAPC   C2B34983   4.701  17.976   3.978
 3112PAPC   C3B34984   4.811  17.825   4.429
 3112PAPC   C4B34985   5.109  17.889   4.808
 3113PAPC   NC334986   2.103  35.036   3.579
 3113PAPC   PO434987   1.853  35.350   3.503
 3113PAPC   GL134988   1.732  35.326   3.907
 3113PAPC   GL234989   2.029  35.495   3.827
 3113PAPC   C1A34990   1.460  35.499   4.070
 3113PAPC   D2A34991   1.214  35.524   4.392
 3113PAPC   D3A34992   1.352  35.374   4.843
 3113PAPC   D4A34993   1.500  34.963   4.802
 3113PAPC   C5A34994   1.781  34.839   5.142
 3113PAPC   C1B34995   2.071  35.643   4.183
 3113PAPC   C2B34996   2.206  35.683   4.605
 3113PAPC   C3B34997   2.356  36.038   4.864
 3113PAPC   C4B34998   2.616  36.444   4.913
 3114PAPC   NC334999  20.554  33.295   3.443
 3114PAPC   PO435000  20.160  33.390   3.485
 3114PAPC   GL135001  19.999  33.238   3.877
 3114PAPC   GL235002  20.210  32.999   3.847
 3114PAPC   C1A35003  19.617  33.260   3.939
 3114PAPC   D2A35004  19.602  33.603   4.125
 3114PAPC   D3A35005  19.625  33.816   4.541
 3114PAPC   D4A35006  19.962  34.141   4.687
 3114PAPC   C5A35007  20.094  34.236   5.182
 3114PAPC   C1B35008  20.206  32.853   4.164
 3114PAPC   C2B35009  20.344  32.689   4.504
 3114PAPC   C3B35010  20.266  32.487   4.978
 3114PAPC   C4B35011  20.071  32.431   5.399
 3115PAPC   NC335012  28.233  26.618   3.020
 3115PAPC   PO435013  28.413  26.839   3.256
 3115PAPC   GL135014  28.395  26.968   3.625
 3115PAPC   GL235015  28.086  26.858   3.631
 3115PAPC   C1A35016  28.438  26.812   3.947
 3115PAPC   D2A35017  28.409  26.465   4.099
 3115PAPC   D3A35018  28.584  26.467   4.539
 3115PAPC   D4A35019  28.254  26.435   4.873
 3115PAPC   C5A35020  28.263  26.532   5.371
 3115PAPC   C1B35021  27.968  26.799   3.976
 3115PAPC   C2B35022  27.844  26.660   4.383
 3115PAPC   C3B35023  27.717  26.491   4.814
 3115PAPC   C4B35024  27.801  26.319   5.304
 3116PAPC   NC335025   6.762  23.942   3.614
 3116PAPC   PO435026   6.982  24.263   3.440
 3116PAPC   GL135027   7.125  24.246   3.837
 3116PAPC   GL235028   7.198  23.991   3.815
 3116PAPC   C1A35029   7.354  24.400   4.053
 3116PAPC   D2A35030   7.711  24.488   4.065
 3116PAPC   D3A35031   8.070  24.497   4.207
 3116PAPC   D4A35032   8.288  24.720   4.588
 3116PAPC   C5A35033   8.363  24.402   4.883
 3116PAPC   C1B35034   7.288  23.915   4.190
 3116PAPC   C2B35035   7.101  23.748   4.508
 3116PAPC   C3B35036   6.646  23.607   4.645
 3116PAPC   C4B35037   6.442  23.300   5.004
 3117PAPC   NC335038  35.083   7.182   3.288
 3117PAPC   PO435039  35.138   7.435   3.574
 3117PAPC   GL135040  35.018   7.297   3.982
 3117PAPC   GL235041  35.239   7.233   4.095
 3117PAPC   C1A35042  34.822   7.503   4.220
 3117PAPC   D2A35043  34.871   7.485   4.613
 3117PAPC   D3A35044  34.940   7.614   5.068
 3117PAPC   D4A35045  35.274   7.582   5.328
 3117PAPC   C5A35046  35.316   8.050   5.528
 3117PAPC   C1B35047  35.251   7.264   4.503
 3117PAPC   C2B35048  35.216   7.085   4.900
 3117PAPC   C3B35049  35.176   7.036   5.326
 3117PAPC   C4B35050  35.032   7.125   5.844
 3118PAPC   NC335051   5.320  18.786   2.612
 3118PAPC   PO435052   4.975  18.879   2.807
 3118PAPC   GL135053   4.788  18.866   3.146
 3118PAPC   GL235054   4.535  18.809   3.269
 3118PAPC   C1A35055   4.974  19.035   3.409
 3118PAPC   D2A35056   4.789  19.311   3.690
 3118PAPC   D3A35057   5.083  19.513   3.893
 3118PAPC   D4A35058   5.445  19.632   3.676
 3118PAPC   C5A35059   5.819  19.540   3.958
 3118PAPC   C1B35060   4.515  18.884   3.676
 3118PAPC   C2B35061   4.249  18.972   4.021
 3118PAPC   C3B35062   4.283  19.159   4.420
 3118PAPC   C4B35063   4.094  19.005   4.893
 3119PAPC   NC335064  34.764  12.857   3.748
 3119PAPC   PO435065  35.139  12.994   3.754
 3119PAPC   GL135066  35.205  12.918   4.111
 3119PAPC   GL235067  35.498  12.860   4.066
 3119PAPC   C1A35068  35.049  12.903   4.476
 3119PAPC   D2A35069  35.119  12.853   4.880
 3119PAPC   D3A35070  35.286  12.890   5.243
 3119PAPC   D4A35071  34.954  13.155   5.498
 3119PAPC   C5A35072  34.455  13.353   5.508
 3119PAPC   C1B35073  35.595  12.793   4.456
 3119PAPC   C2B35074  35.631  12.756   4.909
 3119PAPC   C3B35075  35.724  12.667   5.353
 3119PAPC   C4B35076  35.710  12.406   5.737
 3120PAPC   NC335077  16.324  14.914   3.481
 3120PAPC   PO435078  16.476  15.212   3.277
 3120PAPC   GL135079  16.683  15.332   3.572
 3120PAPC   GL235080  16.720  15.044   3.627
 3120PAPC   C1A35081  16.662  15.485   3.893
 3120PAPC   D2A35082  16.534  15.521   4.265
 3120PAPC   D3A35083  16.348  15.908   4.477
 3120PAPC   D4A35084  16.092  16.149   4.723
 3120PAPC   C5A35085  16.166  16.511   5.002
 3120PAPC   C1B35086  16.626  14.966   3.966
 3120PAPC   C2B35087  16.641  14.955   4.401
 3120PAPC   C3B35088  16.765  14.613   4.684
 3120PAPC   C4B35089  16.668  14.107   4.723
 3121PAPC   NC335090   1.928   9.181   3.869
 3121PAPC   PO435091   1.883   9.540   3.739
 3121PAPC   GL135092   1.864   9.714   4.082
 3121PAPC   GL235093   1.964   9.689   4.248
 3121PAPC   C1A35094   1.669  10.030   4.196
 3121PAPC   D2A35095   1.572   9.813   4.500
 3121PAPC   D3A35096   1.437   9.764   4.911
 3121PAPC   D4A35097   1.306  10.108   5.155
 3121PAPC   C5A35098   1.714  10.209   5.179
 3121PAPC   C1B35099   1.919   9.559   4.621
 3121PAPC   C2B35100   1.900   9.530   5.052
 3121PAPC   C3B35101   1.797   9.732   5.419
 3121PAPC   C4B35102   1.538  10.166   5.614
 3122PAPC   NC335103  11.668  15.090   2.958
 3122PAPC   PO435104  11.526  15.317   3.242
 3122PAPC   GL135105  11.602  15.459   3.613
 3122PAPC   GL235106  11.335  15.400   3.706
 3122PAPC   C1A35107  11.712  15.271   3.855
 3122PAPC   D2A35108  12.101  15.257   3.795
 3122PAPC   D3A35109  12.440  15.157   4.078
 3122PAPC   D4A35110  12.364  15.167   4.535
 3122PAPC   C5A35111  12.066  15.464   4.292
 3122PAPC   C1B35112  11.365  15.548   4.063
 3122PAPC   C2B35113  11.407  15.635   4.491
 3122PAPC   C3B35114  11.471  15.551   4.935
 3122PAPC   C4B35115  11.197  15.288   5.268
 3123PAPC   NC335116  13.703   8.300   3.367
 3123PAPC   PO435117  13.796   7.935   3.512
 3123PAPC   GL135118  13.713   7.903   3.924
 3123PAPC   GL235119  13.597   7.608   3.926
 3123PAPC   C1A35120  13.810   7.894   4.301
 3123PAPC   D2A35121  13.754   8.170   4.588
 3123PAPC   D3A35122  13.528   8.475   4.832
 3123PAPC   D4A35123  13.473   8.949   4.976
 3123PAPC   C5A35124  13.194   9.224   5.199
 3123PAPC   C1B35125  13.734   7.455   4.265
 3123PAPC   C2B35126  13.691   7.567   4.686
 3123PAPC   C3B35127  13.872   7.451   5.138
 3123PAPC   C4B35128  14.052   7.333   5.529
 3124PAPC   NC335129  19.169  34.256   3.673
 3124PAPC   PO435130  18.849  34.466   3.671
 3124PAPC   GL135131  18.550  34.307   3.975
 3124PAPC   GL235132  18.450  34.117   3.865
 3124PAPC   C1A35133  18.793  34.283   4.220
 3124PAPC   D2A35134  19.033  34.340   4.546
 3124PAPC   D3A35135  19.322  34.649   4.722
 3124PAPC   D4A35136  19.610  34.927   4.542
 3124PAPC   C5A35137  19.609  35.358   4.543
 3124PAPC   C1B35138  18.469  34.007   4.214
 3124PAPC   C2B35139  18.634  34.054   4.631
 3124PAPC   C3B35140  18.629  33.691   4.918
 3124PAPC   C4B35141  18.546  33.217   5.023
 3125PAPC   NC335142   9.290  21.503   2.755
 3125PAPC   PO435143   9.160  21.777   2.981
 3125PAPC   GL135144   9.145  21.793   3.385
 3125PAPC   GL235145   9.448  21.865   3.406
 3125PAPC   C1A35146   9.006  21.638   3.653
 3125PAPC   D2A35147   8.986  21.471   4.018
 3125PAPC   D3A35148   8.927  21.031   4.132
 3125PAPC   D4A35149   8.769  21.109   4.595
 3125PAPC   C5A35150   8.517  21.449   4.364
 3125PAPC   C1B35151   9.412  22.158   3.596
 3125PAPC   C2B35152   9.453  22.293   3.936
 3125PAPC   C3B35153   9.467  22.565   4.355
 3125PAPC   C4B35154   9.657  22.630   4.833
 3126PAPC   NC335155  29.119   3.054   3.566
 3126PAPC   PO435156  28.877   2.771   3.673
 3126PAPC   GL135157  28.729   2.689   4.006
 3126PAPC   GL235158  28.780   2.486   4.152
 3126PAPC   C1A35159  28.429   2.714   4.192
 3126PAPC   D2A35160  28.459   2.872   4.553
 3126PAPC   D3A35161  28.393   2.739   4.925
 3126PAPC   D4A35162  28.111   2.737   5.313
 3126PAPC   C5A35163  27.720   2.931   5.067
 3126PAPC   C1B35164  28.821   2.503   4.517
 3126PAPC   C2B35165  28.714   2.361   4.899
 3126PAPC   C3B35166  28.486   2.148   5.241
 3126PAPC   C4B35167  28.217   1.801   5.517
 3127PAPC   NC335168  19.991  20.737   3.754
 3127PAPC   PO435169  19.612  20.805   3.660
 3127PAPC   GL135170  19.387  20.635   3.952
 3127PAPC   GL235171  19.655  20.524   4.116
 3127PAPC   C1A35172  19.182  20.711   4.259
 3127PAPC   D2A35173  19.123  20.444   4.607
 3127PAPC   D3A35174  19.011  20.528   5.041
 3127PAPC   D4A35175  18.989  20.611   5.454
 3127PAPC   C5A35176  19.058  20.410   5.959
 3127PAPC   C1B35177  19.613  20.552   4.459
 3127PAPC   C2B35178  19.538  20.320   4.785
 3127PAPC   C3B35179  19.430  20.274   5.266
 3127PAPC   C4B35180  19.502  20.423   5.726
 3128PAPC   NC335181  32.275  20.640   4.032
 3128PAPC   PO435182  32.275  20.981   3.727
 3128PAPC   GL135183  32.349  21.218   4.080
 3128PAPC   GL235184  32.194  21.101   4.263
 3128PAPC   C1A35185  32.248  21.548   4.227
 3128PAPC   D2A35186  32.081  21.586   4.609
 3128PAPC   D3A35187  32.165  21.472   5.075
 3128PAPC   D4A35188  32.368  21.638   5.430
 3128PAPC   C5A35189  32.457  22.007   5.692
 3128PAPC   C1B35190  32.292  20.831   4.464
 3128PAPC   C2B35191  32.230  20.547   4.766
 3128PAPC   C3B35192  31.975  20.208   5.111
 3128PAPC   C4B35193  31.887  19.842   5.424
 3129PAPC   NC335194  27.321   7.642   3.527
 3129PAPC   PO435195  26.901   7.665   3.459
 3129PAPC   GL135196  26.829   7.860   3.799
 3129PAPC   GL235197  27.136   8.001   3.897
 3129PAPC   C1A35198  26.778   7.646   4.091
 3129PAPC   D2A35199  26.562   7.318   4.172
 3129PAPC   D3A35200  26.273   7.060   3.915
 3129PAPC   D4A35201  26.512   6.670   4.028
 3129PAPC   C5A35202  26.053   6.541   3.827
 3129PAPC   C1B35203  27.143   7.869   4.233
 3129PAPC   C2B35204  27.390   7.691   4.541
 3129PAPC   C3B35205  27.511   7.461   5.003
 3129PAPC   C4B35206  27.204   7.160   5.306
 3130PAPC   NC335207  22.158   1.392   2.981
 3130PAPC   PO435208  22.498   1.147   3.055
 3130PAPC   GL135209  22.412   0.916   3.382
 3130PAPC   GL235210  22.505   1.121   3.601
 3130PAPC   C1A35211  22.344   0.625   3.571
 3130PAPC   D2A35212  22.480   0.248   3.614
 3130PAPC   D3A35213  22.795   0.040   3.806
 3130PAPC   D4A35214  23.258  -0.045   3.956
 3130PAPC   C5A35215  23.356  -0.533   4.105
 3130PAPC   C1B35216  22.590   1.144   3.993
 3130PAPC   C2B35217  22.514   0.987   4.381
 3130PAPC   C3B35218  22.596   0.837   4.806
 3130PAPC   C4B35219  22.364   0.533   5.075
 3131PAPC   NC335220  17.937  23.826   3.060
 3131PAPC   PO435221  17.538  23.983   3.147
 3131PAPC   GL135222  17.630  23.781   3.522
 3131PAPC   GL235223  17.330  23.835   3.602
 3131PAPC   C1A35224  17.623  23.407   3.629
 3131PAPC   D2A35225  17.974  23.278   3.770
 3131PAPC   D3A35226  18.322  23.356   4.081
 3131PAPC   D4A35227  18.028  23.494   4.410
 3131PAPC   C5A35228  17.805  23.634   4.821
 3131PAPC   C1B35229  17.279  23.601   3.826
 3131PAPC   C2B35230  17.132  23.509   4.233
 3131PAPC   C3B35231  16.927  23.480   4.727
 3131PAPC   C4B35232  16.941  23.373   5.210
 3132PAPC   NC335233   5.392  34.062   3.473
 3132PAPC   PO435234   5.657  34.370   3.425
 3132PAPC   GL135235   5.998  34.333   3.590
 3132PAPC   GL235236   6.061  34.652   3.573
 3132PAPC   C1A35237   6.181  34.065   3.565
 3132PAPC   D2A35238   6.142  33.647   3.665
 3132PAPC   D3A35239   6.065  33.509   4.038
 3132PAPC   D4A35240   5.934  33.719   4.463
 3132PAPC   C5A35241   5.803  33.888   4.850
 3132PAPC   C1B35242   6.105  34.745   3.863
 3132PAPC   C2B35243   6.235  34.695   4.249
 3132PAPC   C3B35244   6.074  34.612   4.719
 3132PAPC   C4B35245   5.887  34.941   5.057
 3133PAPC   NC335246  18.198   7.798   3.324
 3133PAPC   PO435247  18.399   8.023   3.610
 3133PAPC   GL135248  18.352   8.206   4.000
 3133PAPC   GL235249  18.022   8.228   4.011
 3133PAPC   C1A35250  18.464   8.256   4.352
 3133PAPC   D2A35251  18.415   8.116   4.731
 3133PAPC   D3A35252  18.467   7.916   5.066
 3133PAPC   D4A35253  18.636   7.753   5.431
 3133PAPC   C5A35254  18.993   7.502   5.391
 3133PAPC   C1B35255  18.035   8.198   4.430
 3133PAPC   C2B35256  17.925   8.098   4.797
 3133PAPC   C3B35257  17.968   8.103   5.269
 3133PAPC   C4B35258  17.872   8.405   5.667
 3134PAPC   NC335259   8.702  17.596   2.869
 3134PAPC   PO435260   8.791  17.837   3.183
 3134PAPC   GL135261   8.636  18.038   3.431
 3134PAPC   GL235262   8.694  18.254   3.611
 3134PAPC   C1A35263   8.396  17.864   3.682
 3134PAPC   D2A35264   8.585  17.579   3.904
 3134PAPC   D3A35265   8.758  17.344   4.261
 3134PAPC   D4A35266   8.329  17.323   4.477
 3134PAPC   C5A35267   8.267  17.565   4.916
 3134PAPC   C1B35268   8.620  18.183   3.963
 3134PAPC   C2B35269   8.823  18.170   4.334
 3134PAPC   C3B35270   9.133  18.425   4.564
 3134PAPC   C4B35271   9.319  18.507   5.020
 3135PAPC   NC335272   3.047  23.155   3.840
 3135PAPC   PO435273   2.740  23.013   3.773
 3135PAPC   GL135274   2.551  23.115   4.058
 3135PAPC   GL235275   2.762  22.966   4.217
 3135PAPC   C1A35276   2.281  23.207   4.356
 3135PAPC   D2A35277   2.222  23.375   4.726
 3135PAPC   D3A35278   2.213  23.590   5.113
 3135PAPC   D4A35279   2.299  23.970   5.418
 3135PAPC   C5A35280   2.216  24.132   5.825
 3135PAPC   C1B35281   2.698  22.982   4.555
 3135PAPC   C2B35282   2.765  23.271   4.867
 3135PAPC   C3B35283   2.789  23.095   5.297
 3135PAPC   C4B35284   2.996  22.807   5.660
 3136PAPC   NC335285   6.672   4.840   3.263
 3136PAPC   PO435286   6.313   4.926   3.383
 3136PAPC   GL135287   6.494   4.739   3.683
 3136PAPC   GL235288   6.541   4.487   3.553
 3136PAPC   C1A35289   6.602   4.850   4.019
 3136PAPC   D2A35290   6.858   4.861   4.265
 3136PAPC   D3A35291   7.081   5.271   4.291
 3136PAPC   D4A35292   7.321   5.162   4.634
 3136PAPC   C5A35293   7.370   4.766   4.843
 3136PAPC   C1B35294   6.311   4.361   3.861
 3136PAPC   C2B35295   6.138   4.280   4.243
 3136PAPC   C3B35296   5.917   4.448   4.708
 3136PAPC   C4B35297   5.696   4.870   4.654
 3137PAPC   NC335298  11.469  13.241   3.395
 3137PAPC   PO435299  11.096  13.426   3.487
 3137PAPC   GL135300  10.803  13.730   3.784
 3137PAPC   GL235301  11.130  13.790   3.862
 3137PAPC   C1A35302  10.698  13.947   4.033
 3137PAPC   D2A35303  10.483  14.269   4.178
 3137PAPC   D3A35304  10.446  14.332   4.596
 3137PAPC   D4A35305  10.183  14.381   4.944
 3137PAPC   C5A35306  10.214  14.209   5.367
 3137PAPC   C1B35307  11.220  14.035   4.190
 3137PAPC   C2B35308  11.378  14.165   4.574
 3137PAPC   C3B35309  11.684  14.194   4.937
 3137PAPC   C4B35310  11.974  13.937   5.229
 3138PAPC   NC335311  18.961   8.152   3.465
 3138PAPC   PO435312  19.316   8.181   3.639
 3138PAPC   GL135313  19.402   7.935   3.958
 3138PAPC   GL235314  19.608   8.150   4.185
 3138PAPC   C1A35315  19.177   7.882   4.283
 3138PAPC   D2A35316  18.905   7.789   4.548
 3138PAPC   D3A35317  19.139   7.494   4.924
 3138PAPC   D4A35318  19.296   7.861   5.159
 3138PAPC   C5A35319  19.437   8.347   5.242
 3138PAPC   C1B35320  19.901   8.002   4.232
 3138PAPC   C2B35321  20.068   7.758   4.524
 3138PAPC   C3B35322  20.223   7.688   5.006
 3138PAPC   C4B35323  20.051   7.688   5.444
 3139PAPC   NC335324  25.200  25.583   3.611
 3139PAPC   PO435325  25.547  25.442   3.747
 3139PAPC   GL135326  25.971  25.584   3.794
 3139PAPC   GL235327  25.871  25.311   3.862
 3139PAPC   C1A35328  26.339  25.652   3.798
 3139PAPC   D2A35329  26.587  25.899   3.999
 3139PAPC   D3A35330  26.688  26.122   4.445
 3139PAPC   D4A35331  26.855  26.364   4.755
 3139PAPC   C5A35332  27.247  26.664   4.720
 3139PAPC   C1B35333  25.772  25.262   4.204
 3139PAPC   C2B35334  25.759  25.170   4.620
 3139PAPC   C3B35335  25.379  25.002   4.870
 3139PAPC   C4B35336  24.912  24.888   5.065
 3140PAPC   NC335337   3.912  32.271   3.624
 3140PAPC   PO435338   4.262  32.186   3.799
 3140PAPC   GL135339   4.128  32.070   4.203
 3140PAPC   GL235340   4.367  31.937   4.280
 3140PAPC   C1A35341   3.939  31.929   4.533
 3140PAPC   D2A35342   3.962  31.612   4.788
 3140PAPC   D3A35343   4.404  31.621   4.952
 3140PAPC   D4A35344   4.755  31.680   5.277
 3140PAPC   C5A35345   5.163  31.908   5.180
 3140PAPC   C1B35346   4.568  32.159   4.489
 3140PAPC   C2B35347   4.746  32.528   4.629
 3140PAPC   C3B35348   4.869  32.936   4.789
 3140PAPC   C4B35349   5.257  33.277   5.048
 3141PAPC   NC335350  13.216   4.645   3.148
 3141PAPC   PO435351  13.025   4.998   3.226
 3141PAPC   GL135352  12.888   4.848   3.636
 3141PAPC   GL235353  13.233   4.876   3.720
 3141PAPC   C1A35354  12.956   4.608   3.953
 3141PAPC   D2A35355  13.191   4.380   4.157
 3141PAPC   D3A35356  13.255   4.407   4.581
 3141PAPC   D4A35357  13.425   4.172   4.860
 3141PAPC   C5A35358  13.176   4.400   5.221
 3141PAPC   C1B35359  13.400   4.876   4.014
 3141PAPC   C2B35360  13.311   4.841   4.380
 3141PAPC   C3B35361  13.310   4.891   4.830
 3141PAPC   C4B35362  13.395   4.851   5.308
 3142PAPC   NC335363  15.138   0.442   3.318
 3142PAPC   PO435364  14.872   0.230   3.157
 3142PAPC   GL135365  14.659   0.453   3.448
 3142PAPC   GL235366  14.811   0.367   3.684
 3142PAPC   C1A35367  14.321   0.316   3.582
 3142PAPC   D2A35368  14.073   0.364   3.873
 3142PAPC   D3A35369  14.024   0.074   4.168
 3142PAPC   D4A35370  14.065   0.118   4.665
 3142PAPC   C5A35371  14.232   0.536   4.825
 3142PAPC   C1B35372  14.937   0.040   3.831
 3142PAPC   C2B35373  15.012  -0.123   4.173
 3142PAPC   C3B35374  14.944  -0.244   4.639
 3142PAPC   C4B35375  14.740  -0.282   5.089
 3143PAPC   NC335376  32.901  19.761   3.896
 3143PAPC   PO435377  32.840  19.422   3.929
 3143PAPC   GL135378  32.788  19.357   4.285
 3143PAPC   GL235379  33.009  19.469   4.406
 3143PAPC   C1A35380  32.713  19.037   4.517
 3143PAPC   D2A35381  32.832  18.840   4.878
 3143PAPC   D3A35382  32.597  18.673   5.267
 3143PAPC   D4A35383  32.635  18.665   5.709
 3143PAPC   C5A35384  32.533  18.204   5.880
 3143PAPC   C1B35385  33.055  19.628   4.733
 3143PAPC   C2B35386  33.246  19.827   5.035
 3143PAPC   C3B35387  33.566  20.088   5.152
 3143PAPC   C4B35388  33.747  20.239   5.569
 3144PAPC   NC335389  31.567  31.198   3.637
 3144PAPC   PO435390  31.623  30.804   3.555
 3144PAPC   GL135391  31.872  30.783   3.936
 3144PAPC   GL235392  31.747  31.003   4.097
 3144PAPC   C1A35393  32.165  30.799   4.144
 3144PAPC   D2A35394  32.457  30.478   4.291
 3144PAPC   D3A35395  32.509  30.141   4.618
 3144PAPC   D4A35396  32.315  29.732   4.752
 3144PAPC   C5A35397  32.469  29.273   4.929
 3144PAPC   C1B35398  31.580  31.016   4.435
 3144PAPC   C2B35399  31.208  31.127   4.592
 3144PAPC   C3B35400  31.032  31.211   4.967
 3144PAPC   C4B35401  30.704  31.601   5.104
 3145PAPC   NC335402  18.614   1.658   3.563
 3145PAPC   PO435403  18.481   2.014   3.398
 3145PAPC   GL135404  18.418   2.248   3.836
 3145PAPC   GL235405  18.436   1.995   3.839
 3145PAPC   C1A35406  18.445   2.449   4.144
 3145PAPC   D2A35407  18.607   2.533   4.519
 3145PAPC   D3A35408  18.686   2.834   4.820
 3145PAPC   D4A35409  19.006   3.149   4.698
 3145PAPC   C5A35410  18.857   3.535   4.550
 3145PAPC   C1B35411  18.427   1.941   4.189
 3145PAPC   C2B35412  18.358   2.027   4.597
 3145PAPC   C3B35413  18.433   2.136   5.083
 3145PAPC   C4B35414  18.438   2.292   5.521
 3146PAPC   NC335415  30.951  22.919   3.321
 3146PAPC   PO435416  31.025  22.555   3.146
 3146PAPC   GL135417  30.734  22.495   3.476
 3146PAPC   GL235418  30.970  22.371   3.578
 3146PAPC   C1A35419  30.427  22.452   3.604
 3146PAPC   D2A35420  30.230  22.635   3.867
 3146PAPC   D3A35421  29.866  22.409   3.811
 3146PAPC   D4A35422  29.797  22.625   4.125
 3146PAPC   C5A35423  29.466  22.522   4.507
 3146PAPC   C1B35424  31.086  22.664   3.833
 3146PAPC   C2B35425  31.092  22.747   4.223
 3146PAPC   C3B35426  30.952  22.895   4.688
 3146PAPC   C4B35427  30.837  22.684   5.093
 3147PAPC   NC335428  13.970  20.822   2.941
 3147PAPC   PO435429  14.226  21.068   3.138
 3147PAPC   GL135430  14.341  21.016   3.539
 3147PAPC   GL235431  14.041  21.135   3.520
 3147PAPC   C1A35432  14.323  20.982   3.921
 3147PAPC   D2A35433  14.166  20.776   4.199
 3147PAPC   D3A35434  14.020  20.816   4.603
 3147PAPC   D4A35435  14.096  21.197   4.824
 3147PAPC   C5A35436  13.926  21.594   4.655
 3147PAPC   C1B35437  13.919  21.131   3.883
 3147PAPC   C2B35438  13.804  21.129   4.304
 3147PAPC   C3B35439  13.513  21.374   4.541
 3147PAPC   C4B35440  13.164  21.428   4.873
 3148PAPC   NC335441  30.935   7.959   3.032
 3148PAPC   PO435442  30.809   7.689   3.278
 3148PAPC   GL135443  30.575   7.666   3.598
 3148PAPC   GL235444  30.626   7.396   3.692
 3148PAPC   C1A35445  30.558   7.830   3.940
 3148PAPC   D2A35446  30.203   8.028   3.965
 3148PAPC   D3A35447  30.249   8.142   4.334
 3148PAPC   D4A35448  30.462   8.342   4.641
 3148PAPC   C5A35449  30.902   8.148   4.830
 3148PAPC   C1B35450  30.695   7.266   4.036
 3148PAPC   C2B35451  30.642   7.046   4.378
 3148PAPC   C3B35452  30.772   6.823   4.796
 3148PAPC   C4B35453  30.449   6.499   4.894
 3149PAPC   NC335454   6.356  15.963   3.754
 3149PAPC   PO435455   5.967  15.889   3.738
 3149PAPC   GL135456   5.631  15.904   4.067
 3149PAPC   GL235457   5.618  15.635   4.053
 3149PAPC   C1A35458   5.612  16.084   4.373
 3149PAPC   D2A35459   5.655  16.353   4.638
 3149PAPC   D3A35460   5.875  16.579   4.974
 3149PAPC   D4A35461   6.041  16.824   5.359
 3149PAPC   C5A35462   5.921  16.704   5.819
 3149PAPC   C1B35463   5.586  15.562   4.424
 3149PAPC   C2B35464   5.539  15.836   4.783
 3149PAPC   C3B35465   5.541  16.160   5.134
 3149PAPC   C4B35466   5.740  16.399   5.456
 3150PAPC   NC335467   2.582   0.537   2.963
 3150PAPC   PO435468   2.569   0.236   3.226
 3150PAPC   GL135469   2.682   0.201   3.608
 3150PAPC   GL235470   2.534   0.009   3.722
 3150PAPC   C1A35471   2.891   0.470   3.768
 3150PAPC   D2A35472   3.052   0.800   3.849
 3150PAPC   D3A35473   2.898   1.015   4.258
 3150PAPC   D4A35474   2.754   1.103   4.672
 3150PAPC   C5A35475   3.051   1.312   5.011
 3150PAPC   C1B35476   2.529   0.035   4.078
 3150PAPC   C2B35477   2.681  -0.082   4.507
 3150PAPC   C3B35478   2.801  -0.223   4.928
 3150PAPC   C4B35479   3.005  -0.507   5.221
 3151PAPC   NC335480   3.336  28.489   3.562
 3151PAPC   PO435481   3.007  28.262   3.493
 3151PAPC   GL135482   2.644  28.318   3.809
 3151PAPC   GL235483   2.877  28.463   3.892
 3151PAPC   C1A35484   2.309  28.459   3.905
 3151PAPC   D2A35485   1.930  28.630   4.011
 3151PAPC   D3A35486   1.681  28.854   4.243
 3151PAPC   D4A35487   1.741  28.573   4.552
 3151PAPC   C5A35488   1.793  28.587   5.050
 3151PAPC   C1B35489   2.963  28.428   4.251
 3151PAPC   C2B35490   3.064  28.522   4.628
 3151PAPC   C3B35491   3.447  28.484   4.860
 3151PAPC   C4B35492   3.646  28.718   5.266
 3152PAPC   NC335493  34.678   6.416   3.178
 3152PAPC   PO435494  34.702   6.295   3.556
 3152PAPC   GL135495  34.942   6.056   3.717
 3152PAPC   GL235496  35.148   6.366   3.724
 3152PAPC   C1A35497  35.020   5.981   4.055
 3152PAPC   D2A35498  35.215   5.721   4.299
 3152PAPC   D3A35499  35.039   5.711   4.711
 3152PAPC   D4A35500  34.761   5.617   5.120
 3152PAPC   C5A35501  34.745   5.726   5.571
 3152PAPC   C1B35502  35.085   6.424   4.093
 3152PAPC   C2B35503  34.996   6.390   4.519
 3152PAPC   C3B35504  34.708   6.315   4.842
 3152PAPC   C4B35505  34.712   6.229   5.353
 3153PAPC   NC335506  18.324  13.107   3.106
 3153PAPC   PO435507  18.644  13.263   3.292
 3153PAPC   GL135508  18.597  13.279   3.662
 3153PAPC   GL235509  18.291  13.449   3.688
 3153PAPC   C1A35510  18.642  13.074   3.978
 3153PAPC   D2A35511  18.533  12.870   4.325
 3153PAPC   D3A35512  18.442  13.060   4.686
 3153PAPC   D4A35513  18.494  13.400   4.929
 3153PAPC   C5A35514  18.551  13.683   5.329
 3153PAPC   C1B35515  18.235  13.500   4.043
 3153PAPC   C2B35516  18.340  13.553   4.460
 3153PAPC   C3B35517  18.019  13.662   4.873
 3153PAPC   C4B35518  17.965  13.793   5.330
 3154PAPC   NC335519  10.575   4.329   3.277
 3154PAPC   PO435520  10.167   4.382   3.357
 3154PAPC   GL135521  10.259   4.459   3.802
 3154PAPC   GL235522  10.532   4.382   3.747
 3154PAPC   C1A35523  10.223   4.692   4.085
 3154PAPC   D2A35524  10.299   4.949   4.398
 3154PAPC   D3A35525  10.606   4.727   4.615
 3154PAPC   D4A35526  10.639   4.836   5.120
 3154PAPC   C5A35527  10.383   5.173   5.343
 3154PAPC   C1B35528  10.571   4.293   4.088
 3154PAPC   C2B35529  10.368   4.271   4.483
 3154PAPC   C3B35530  10.263   4.028   4.893
 3154PAPC   C4B35531  10.532   3.658   5.034
 3155PAPC   NC335532  19.935  10.045   3.580
 3155PAPC   PO435533  20.190   9.749   3.646
 3155PAPC   GL135534  20.007   9.776   4.038
 3155PAPC   GL235535  20.197   9.549   4.158
 3155PAPC   C1A35536  19.874   9.927   4.320
 3155PAPC   D2A35537  19.901  10.177   4.573
 3155PAPC   D3A35538  20.008  10.329   4.944
 3155PAPC   D4A35539  19.707  10.092   5.150
 3155PAPC   C5A35540  19.649   9.616   5.326
 3155PAPC   C1B35541  20.176   9.676   4.537
 3155PAPC   C2B35542  20.072   9.879   4.949
 3155PAPC   C3B35543  20.060   9.836   5.433
 3155PAPC   C4B35544  20.047   9.590   5.857
 3156PAPC   NC335545   2.438  11.473   3.847
 3156PAPC   PO435546   2.231  11.799   3.935
 3156PAPC   GL135547   2.493  11.934   4.274
 3156PAPC   GL235548   2.502  11.599   4.306
 3156PAPC   C1A35549   2.660  12.117   4.544
 3156PAPC   D2A35550   3.016  12.157   4.573
 3156PAPC   D3A35551   3.152  12.572   4.611
 3156PAPC   D4A35552   2.984  12.395   5.018
 3156PAPC   C5A35553   2.503  12.406   4.874
 3156PAPC   C1B35554   2.306  11.439   4.565
 3156PAPC   C2B35555   2.156  11.345   4.986
 3156PAPC   C3B35556   2.062  11.113   5.411
 3156PAPC   C4B35557   1.822  11.314   5.786
 3157PAPC   NC335558  29.200  27.158   3.015
 3157PAPC   PO435559  29.085  26.865   3.274
 3157PAPC   GL135560  28.997  27.103   3.635
 3157PAPC   GL235561  29.258  27.215   3.619
 3157PAPC   C1A35562  28.863  26.936   3.950
 3157PAPC   D2A35563  28.668  26.950   4.307
 3157PAPC   D3A35564  28.891  27.057   4.704
 3157PAPC   D4A35565  28.756  27.404   5.004
 3157PAPC   C5A35566  29.197  27.307   5.076
 3157PAPC   C1B35567  29.346  27.120   3.958
 3157PAPC   C2B35568  29.270  27.052   4.301
 3157PAPC   C3B35569  29.428  27.088   4.721
 3157PAPC   C4B35570  29.564  26.975   5.183
 3158PAPC   NC335571   4.327  23.866   3.363
 3158PAPC   PO435572   4.345  23.481   3.425
 3158PAPC   GL135573   4.698  23.554   3.718
 3158PAPC   GL235574   4.465  23.719   3.828
 3158PAPC   C1A35575   4.866  23.580   4.049
 3158PAPC   D2A35576   5.106  23.387   4.288
 3158PAPC   D3A35577   5.496  23.644   4.144
 3158PAPC   D4A35578   5.328  24.012   4.224
 3158PAPC   C5A35579   5.457  24.166   4.654
 3158PAPC   C1B35580   4.549  23.916   4.133
 3158PAPC   C2B35581   4.631  23.761   4.494
 3158PAPC   C3B35582   4.572  23.841   4.942
 3158PAPC   C4B35583   4.356  23.875   5.347
 3159PAPC   NC335584  17.026   1.580   3.193
 3159PAPC   PO435585  17.266   1.326   3.330
 3159PAPC   GL135586  17.137   1.073   3.635
 3159PAPC   GL235587  17.342   1.260   3.819
 3159PAPC   C1A35588  16.815   1.006   3.857
 3159PAPC   D2A35589  16.543   0.818   4.092
 3159PAPC   D3A35590  16.452   0.607   4.474
 3159PAPC   D4A35591  16.697   0.434   4.828
 3159PAPC   C5A35592  16.307   0.112   5.026
 3159PAPC   C1B35593  17.330   1.208   4.170
 3159PAPC   C2B35594  17.233   1.266   4.540
 3159PAPC   C3B35595  17.098   1.030   4.952
 3159PAPC   C4B35596  17.100   0.489   5.139
 3160PAPC   NC335597   2.675  21.292   4.083
 3160PAPC   PO435598   2.377  21.066   3.890
 3160PAPC   GL135599   2.171  20.916   4.238
 3160PAPC   GL235600   1.902  21.086   4.142
 3160PAPC   C1A35601   2.312  20.743   4.500
 3160PAPC   D2A35602   2.315  20.706   4.873
 3160PAPC   D3A35603   2.635  20.423   4.865
 3160PAPC   D4A35604   2.824  20.390   5.237
 3160PAPC   C5A35605   2.634  20.183   5.617
 3160PAPC   C1B35606   1.635  21.165   4.412
 3160PAPC   C2B35607   1.509  21.054   4.764
 3160PAPC   C3B35608   1.419  21.003   5.281
 3160PAPC   C4B35609   1.369  21.085   5.767
 3161PAPC   NC335610  15.932  32.796   2.841
 3161PAPC   PO435611  15.682  32.807   3.145
 3161PAPC   GL135612  15.848  32.699   3.545
 3161PAPC   GL235613  15.840  32.936   3.608
 3161PAPC   C1A35614  15.689  32.414   3.741
 3161PAPC   D2A35615  15.261  32.367   3.813
 3161PAPC   D3A35616  14.886  32.106   3.788
 3161PAPC   D4A35617  14.761  32.106   4.187
 3161PAPC   C5A35618  14.979  32.138   4.616
 3161PAPC   C1B35619  15.706  33.133   3.894
 3161PAPC   C2B35620  15.718  33.541   4.061
 3161PAPC   C3B35621  15.573  33.869   4.435
 3161PAPC   C4B35622  15.610  33.769   4.900
 3162PAPC   NC335623  15.312  12.440   3.405
 3162PAPC   PO435624  15.632  12.539   3.547
 3162PAPC   GL135625  15.505  12.869   3.657
 3162PAPC   GL235626  15.477  13.082   3.497
 3162PAPC   C1A35627  15.763  12.845   4.008
 3162PAPC   D2A35628  16.068  12.708   4.275
 3162PAPC   D3A35629  15.960  12.864   4.715
 3162PAPC   D4A35630  16.064  12.514   4.981
 3162PAPC   C5A35631  16.306  12.337   5.419
 3162PAPC   C1B35632  15.408  13.346   3.785
 3162PAPC   C2B35633  15.325  13.700   4.059
 3162PAPC   C3B35634  15.343  13.571   4.524
 3162PAPC   C4B35635  15.187  13.242   4.891
 3163PAPC   NC335636   3.058   0.339   3.306
 3163PAPC   PO435637   3.262   0.075   3.164
 3163PAPC   GL135638   3.361  -0.167   3.511
 3163PAPC   GL235639   3.137   0.046   3.653
 3163PAPC   C1A35640   3.564  -0.084   3.817
 3163PAPC   D2A35641   3.726  -0.020   4.172
 3163PAPC   D3A35642   3.752  -0.269   4.458
 3163PAPC   D4A35643   3.735  -0.360   4.872
 3163PAPC   C5A35644   3.531  -0.431   5.328
 3163PAPC   C1B35645   3.018   0.121   3.959
 3163PAPC   C2B35646   3.219   0.153   4.344
 3163PAPC   C3B35647   3.542   0.100   4.702
 3163PAPC   C4B35648   4.025   0.055   4.842
 3164PAPC   NC335649  23.468  22.365   3.014
 3164PAPC   PO435650  23.201  22.445   3.314
 3164PAPC   GL135651  23.334  22.376   3.718
 3164PAPC   GL235652  23.612  22.372   3.628
 3164PAPC   C1A35653  23.391  22.060   3.908
 3164PAPC   D2A35654  23.488  21.727   4.185
 3164PAPC   D3A35655  23.425  21.771   4.653
 3164PAPC   D4A35656  23.505  21.643   5.137
 3164PAPC   C5A35657  23.956  21.392   5.291
 3164PAPC   C1B35658  23.677  22.387   3.974
 3164PAPC   C2B35659  23.540  22.289   4.384
 3164PAPC   C3B35660  23.303  22.237   4.754
 3164PAPC   C4B35661  23.059  22.014   5.168
 3165PAPC   NC335662  11.312  35.208   3.188
 3165PAPC   PO435663  11.420  35.560   3.191
 3165PAPC   GL135664  11.475  35.743   3.574
 3165PAPC   GL235665  11.716  35.696   3.601
 3165PAPC   C1A35666  11.280  35.845   3.854
 3165PAPC   D2A35667  11.289  36.106   4.132
 3165PAPC   D3A35668  11.131  36.286   4.494
 3165PAPC   D4A35669  11.581  36.264   4.583
 3165PAPC   C5A35670  11.777  36.585   4.942
 3165PAPC   C1B35671  11.720  35.722   4.007
 3165PAPC   C2B35672  11.808  35.782   4.487
 3165PAPC   C3B35673  12.202  35.792   4.790
 3165PAPC   C4B35674  12.494  35.723   5.140
 3166PAPC   NC335675   5.774  26.772   3.316
 3166PAPC   PO435676   5.866  26.402   3.331
 3166PAPC   GL135677   5.700  26.450   3.742
 3166PAPC   GL235678   5.523  26.314   3.640
 3166PAPC   C1A35679   5.506  26.521   4.090
 3166PAPC   D2A35680   5.280  26.661   4.377
 3166PAPC   D3A35681   5.068  27.047   4.427
 3166PAPC   D4A35682   4.645  27.222   4.380
 3166PAPC   C5A35683   4.890  27.643   4.465
 3166PAPC   C1B35684   5.575  26.059   3.908
 3166PAPC   C2B35685   5.698  25.904   4.298
 3166PAPC   C3B35686   5.741  25.758   4.785
 3166PAPC   C4B35687   5.808  25.435   5.182
 3167PAPC   NC335688   0.060  12.971   3.263
 3167PAPC   PO435689   0.409  12.976   3.403
 3167PAPC   GL135690   0.566  13.081   3.768
 3167PAPC   GL235691   0.357  12.980   3.925
 3167PAPC   C1A35692   0.870  13.188   3.926
 3167PAPC   D2A35693   1.105  12.965   4.129
 3167PAPC   D3A35694   1.196  12.557   4.244
 3167PAPC   D4A35695   1.620  12.582   4.409
 3167PAPC   C5A35696   1.561  12.585   4.850
 3167PAPC   C1B35697   0.374  13.001   4.265
 3167PAPC   C2B35698   0.376  13.131   4.658
 3167PAPC   C3B35699   0.493  13.166   5.180
 3167PAPC   C4B35700   0.651  13.274   5.653
 3168PAPC   NC335701  29.449  31.597   2.709
 3168PAPC   PO435702  29.438  31.871   3.021
 3168PAPC   GL135703  29.463  31.695   3.371
 3168PAPC   GL235704  29.222  31.531   3.429
 3168PAPC   C1A35705  29.785  31.547   3.547
 3168PAPC   D2A35706  29.998  31.351   3.728
 3168PAPC   D3A35707  30.138  31.297   4.123
 3168PAPC   D4A35708  30.287  31.395   4.591
 3168PAPC   C5A35709  30.757  31.475   4.637
 3168PAPC   C1B35710  29.246  31.609   3.763
 3168PAPC   C2B35711  29.159  31.502   4.109
 3168PAPC   C3B35712  28.925  31.329   4.474
 3168PAPC   C4B35713  28.610  31.219   4.873
 3169PAPC   NC335714  19.777  12.009   3.351
 3169PAPC   PO435715  19.847  12.324   3.571
 3169PAPC   GL135716  19.661  12.418   3.931
 3169PAPC   GL235717  19.890  12.510   4.036
 3169PAPC   C1A35718  19.296  12.429   4.017
 3169PAPC   D2A35719  18.984  12.521   4.243
 3169PAPC   D3A35720  18.587  12.302   4.343
 3169PAPC   D4A35721  18.464  12.470   4.782
 3169PAPC   C5A35722  18.176  12.437   5.166
 3169PAPC   C1B35723  20.049  12.688   4.279
 3169PAPC   C2B35724  20.061  12.908   4.617
 3169PAPC   C3B35725  20.285  13.102   4.989
 3169PAPC   C4B35726  20.477  13.327   5.400
 3170PAPC   NC335727  30.001  33.700   3.403
 3170PAPC   PO435728  30.224  34.034   3.368
 3170PAPC   GL135729  30.334  33.903   3.795
 3170PAPC   GL235730  30.404  33.638   3.747
 3170PAPC   C1A35731  30.250  33.930   4.201
 3170PAPC   D2A35732  30.280  34.210   4.556
 3170PAPC   D3A35733  29.933  34.413   4.740
 3170PAPC   D4A35734  29.864  34.107   5.049
 3170PAPC   C5A35735  30.292  33.934   4.944
 3170PAPC   C1B35736  30.343  33.492   4.112
 3170PAPC   C2B35737  30.265  33.478   4.515
 3170PAPC   C3B35738  30.238  33.341   4.996
 3170PAPC   C4B35739  30.032  33.611   5.387
 3171PAPC   NC335740  30.847  30.578   3.483
 3171PAPC   PO435741  31.148  30.528   3.723
 3171PAPC   GL135742  31.396  30.659   4.135
 3171PAPC   GL235743  31.505  30.415   4.082
 3171PAPC   C1A35744  31.318  30.671   4.476
 3171PAPC   D2A35745  31.352  30.754   4.901
 3171PAPC   D3A35746  31.520  30.519   5.131
 3171PAPC   D4A35747  31.620  30.861   5.371
 3171PAPC   C5A35748  31.999  31.099   5.476
 3171PAPC   C1B35749  31.763  30.554   4.299
 3171PAPC   C2B35750  31.938  30.769   4.607
 3171PAPC   C3B35751  32.068  30.813   5.053
 3171PAPC   C4B35752  32.175  30.610   5.453
 3172PAPC   NC335753   1.651   5.822   2.910
 3172PAPC   PO435754   1.514   6.089   3.210
 3172PAPC   GL135755   1.486   5.931   3.625
 3172PAPC   GL235756   1.749   6.018   3.689
 3172PAPC   C1A35757   1.422   5.823   4.004
 3172PAPC   D2A35758   1.242   5.618   4.291
 3172PAPC   D3A35759   1.205   5.720   4.719
 3172PAPC   D4A35760   1.066   6.158   4.819
 3172PAPC   C5A35761   0.696   6.060   4.907
 3172PAPC   C1B35762   1.844   5.948   4.031
 3172PAPC   C2B35763   2.029   5.837   4.391
 3172PAPC   C3B35764   2.379   5.589   4.529
 3172PAPC   C4B35765   2.678   5.441   4.853
 3173PAPC   NC335766  21.316   0.523   3.088
 3173PAPC   PO435767  20.989   0.671   3.207
 3173PAPC   GL135768  20.985   0.519   3.645
 3173PAPC   GL235769  21.264   0.497   3.561
 3173PAPC   C1A35770  20.820   0.742   3.879
 3173PAPC   D2A35771  20.503   0.980   3.824
 3173PAPC   D3A35772  20.326   0.974   4.231
 3173PAPC   D4A35773  20.197   1.040   4.711
 3173PAPC   C5A35774  19.911   1.112   5.146
 3173PAPC   C1B35775  21.548   0.374   3.794
 3173PAPC   C2B35776  21.633   0.474   4.144
 3173PAPC   C3B35777  21.563   0.515   4.614
 3173PAPC   C4B35778  21.487   0.698   5.081
 3174PAPC   NC335779  22.531  17.150   3.724
 3174PAPC   PO435780  22.804  17.349   3.911
 3174PAPC   GL135781  22.770  17.678   4.092
 3174PAPC   GL235782  22.537  17.643   4.248
 3174PAPC   C1A35783  22.969  17.737   4.437
 3174PAPC   D2A35784  22.751  18.035   4.527
 3174PAPC   D3A35785  22.640  18.043   4.935
 3174PAPC   D4A35786  22.814  18.229   5.332
 3174PAPC   C5A35787  22.740  18.703   5.642
 3174PAPC   C1B35788  22.340  17.754   4.509
 3174PAPC   C2B35789  22.092  17.756   4.879
 3174PAPC   C3B35790  21.633  17.717   4.936
 3174PAPC   C4B35791  21.164  17.609   5.081
 3175PAPC   NC335792  22.100  27.671   3.422
 3175PAPC   PO435793  22.245  27.378   3.261
 3175PAPC   GL135794  22.189  27.125   3.597
 3175PAPC   GL235795  22.047  27.254   3.720
 3175PAPC   C1A35796  22.489  26.998   3.831
 3175PAPC   D2A35797  22.451  26.765   4.183
 3175PAPC   D3A35798  22.259  27.082   4.405
 3175PAPC   D4A35799  22.584  27.302   4.630
 3175PAPC   C5A35800  23.041  27.452   4.497
 3175PAPC   C1B35801  21.908  27.211   4.082
 3175PAPC   C2B35802  21.745  27.205   4.499
 3175PAPC   C3B35803  21.571  27.448   4.849
 3175PAPC   C4B35804  21.733  27.455   5.334
 3176PAPC   NC335805   3.146  20.393   3.114
 3176PAPC   PO435806   3.385  20.176   3.333
 3176PAPC   GL135807   3.384  20.174   3.740
 3176PAPC   GL235808   3.637  19.905   3.696
 3176PAPC   C1A35809   3.540  20.312   4.008
 3176PAPC   D2A35810   3.911  20.312   4.076
 3176PAPC   D3A35811   4.252  20.358   4.381
 3176PAPC   D4A35812   4.710  20.438   4.214
 3176PAPC   C5A35813   5.098  20.690   4.208
 3176PAPC   C1B35814   3.611  19.611   3.987
 3176PAPC   C2B35815   3.440  19.595   4.337
 3176PAPC   C3B35816   3.283  19.279   4.644
 3176PAPC   C4B35817   3.167  19.281   5.082
 3177PAPC   NC335818   4.277  11.983   3.823
 3177PAPC   PO435819   4.390  11.655   3.618
 3177PAPC   GL135820   4.558  11.282   3.769
 3177PAPC   GL235821   4.250  11.278   3.931
 3177PAPC   C1A35822   4.758  11.185   4.039
 3177PAPC   D2A35823   4.671  11.041   4.405
 3177PAPC   D3A35824   4.813  10.958   4.832
 3177PAPC   D4A35825   4.802  11.114   5.234
 3177PAPC   C5A35826   4.763  10.962   5.689
 3177PAPC   C1B35827   4.318  11.344   4.263
 3177PAPC   C2B35828   4.379  11.578   4.629
 3177PAPC   C3B35829   4.611  11.913   4.905
 3177PAPC   C4B35830   4.893  12.132   5.246
 3178PAPC   NC335831  16.615  23.257   3.406
 3178PAPC   PO435832  16.616  22.992   3.694
 3178PAPC   GL135833  16.466  22.925   4.139
 3178PAPC   GL235834  16.290  22.763   3.994
 3178PAPC   C1A35835  16.443  23.182   4.383
 3178PAPC   D2A35836  16.515  23.110   4.744
 3178PAPC   D3A35837  16.520  23.170   5.162
 3178PAPC   D4A35838  16.251  23.382   5.384
 3178PAPC   C5A35839  15.839  23.576   5.319
 3178PAPC   C1B35840  16.010  22.742   4.224
 3178PAPC   C2B35841  15.902  22.870   4.596
 3178PAPC   C3B35842  16.028  22.712   5.026
 3178PAPC   C4B35843  16.223  22.521   5.452
 3179PAPC   NC335844   0.449   7.404   2.659
 3179PAPC   PO435845   0.669   7.536   3.000
 3179PAPC   GL135846   0.614   7.455   3.468
 3179PAPC   GL235847   0.741   7.537   3.607
 3179PAPC   C1A35848   0.303   7.489   3.681
 3179PAPC   D2A35849   0.312   7.650   4.043
 3179PAPC   D3A35850   0.455   7.990   3.801
 3179PAPC   D4A35851   0.419   8.322   4.064
 3179PAPC   C5A35852   0.877   8.441   4.050
 3179PAPC   C1B35853   0.779   7.536   3.957
 3179PAPC   C2B35854   0.733   7.446   4.369
 3179PAPC   C3B35855   0.643   7.386   4.796
 3179PAPC   C4B35856   0.308   7.289   5.250
 3180PAPC   NC335857   0.539  26.101   3.752
 3180PAPC   PO435858   0.506  26.510   3.737
 3180PAPC   GL135859   0.626  26.660   4.099
 3180PAPC   GL235860   0.380  26.453   4.199
 3180PAPC   C1A35861   0.873  26.551   4.344
 3180PAPC   D2A35862   0.790  26.504   4.728
 3180PAPC   D3A35863   0.554  26.718   5.044
 3180PAPC   D4A35864   0.622  27.198   5.162
 3180PAPC   C5A35865   0.658  27.389   4.724
 3180PAPC   C1B35866   0.329  26.441   4.528
 3180PAPC   C2B35867   0.399  26.155   4.825
 3180PAPC   C3B35868   0.357  25.765   5.171
 3180PAPC   C4B35869   0.235  25.325   5.322
 3181PAPC   NC335870   6.980   6.821   3.307
 3181PAPC   PO435871   6.775   6.544   3.530
 3181PAPC   GL135872   6.958   6.343   3.853
 3181PAPC   GL235873   6.958   6.613   4.082
 3181PAPC   C1A35874   6.858   6.082   4.125
 3181PAPC   D2A35875   6.604   5.971   4.452
 3181PAPC   D3A35876   6.819   5.981   4.860
 3181PAPC   D4A35877   7.259   5.741   4.896
 3181PAPC   C5A35878   7.163   5.812   4.464
 3181PAPC   C1B35879   7.048   6.821   4.405
 3181PAPC   C2B35880   7.217   6.950   4.751
 3181PAPC   C3B35881   7.306   7.226   5.219
 3181PAPC   C4B35882   7.156   7.329   5.622
 3182PAPC   NC335883   2.566  21.999   3.461
 3182PAPC   PO435884   2.300  22.283   3.514
 3182PAPC   GL135885   2.242  22.398   3.879
 3182PAPC   GL235886   1.961  22.484   3.900
 3182PAPC   C1A35887   2.396  22.448   4.205
 3182PAPC   D2A35888   2.469  22.472   4.608
 3182PAPC   D3A35889   2.644  22.736   4.928
 3182PAPC   D4A35890   2.927  22.567   5.216
 3182PAPC   C5A35891   2.899  22.082   5.317
 3182PAPC   C1B35892   1.917  22.339   4.212
 3182PAPC   C2B35893   1.966  22.387   4.590
 3182PAPC   C3B35894   1.930  22.381   5.061
 3182PAPC   C4B35895   2.109  22.440   5.541
 3183PAPC   NC335896  16.249  31.853   3.264
 3183PAPC   PO435897  16.597  31.700   3.425
 3183PAPC   GL135898  16.686  32.052   3.567
 3183PAPC   GL235899  16.563  32.199   3.404
 3183PAPC   C1A35900  16.594  32.199   3.876
 3183PAPC   D2A35901  16.697  32.391   4.191
 3183PAPC   D3A35902  16.713  32.898   4.267
 3183PAPC   D4A35903  16.579  33.254   4.521
 3183PAPC   C5A35904  16.484  33.713   4.467
 3183PAPC   C1B35905  16.455  32.566   3.589
 3183PAPC   C2B35906  16.376  32.682   3.941
 3183PAPC   C3B35907  16.203  32.802   4.357
 3183PAPC   C4B35908  16.134  32.814   4.798
 3184PAPC   NC335909   0.335  35.831   3.161
 3184PAPC   PO435910   0.207  35.485   3.238
 3184PAPC   GL135911   0.285  35.395   3.630
 3184PAPC   GL235912   0.506  35.268   3.679
 3184PAPC   C1A35913   0.051  35.528   3.893
 3184PAPC   D2A35914  -0.210  35.851   3.995
 3184PAPC   D3A35915  -0.647  35.988   4.105
 3184PAPC   D4A35916  -0.831  36.114   4.522
 3184PAPC   C5A35917  -1.051  35.996   4.959
 3184PAPC   C1B35918   0.615  35.061   3.954
 3184PAPC   C2B35919   0.816  34.848   4.217
 3184PAPC   C3B35920   0.988  35.051   4.597
 3184PAPC   C4B35921   0.988  35.114   5.105
 3185PAPC   NC335922  26.079   0.080   3.122
 3185PAPC   PO435923  26.351   0.050   3.415
 3185PAPC   GL135924  26.270   0.081   3.838
 3185PAPC   GL235925  26.408   0.333   3.873
 3185PAPC   C1A35926  26.271  -0.155   4.156
 3185PAPC   D2A35927  26.188  -0.504   4.210
 3185PAPC   D3A35928  26.168  -0.912   4.393
 3185PAPC   D4A35929  26.258  -0.865   4.801
 3185PAPC   C5A35930  25.968  -0.768   5.149
 3185PAPC   C1B35931  26.647   0.217   4.145
 3185PAPC   C2B35932  26.735   0.199   4.586
 3185PAPC   C3B35933  26.510   0.083   4.986
 3185PAPC   C4B35934  26.342  -0.112   5.412
 3186PAPC   NC335935  15.784  23.231   2.835
 3186PAPC   PO435936  15.630  23.365   3.172
 3186PAPC   GL135937  15.864  23.567   3.523
 3186PAPC   GL235938  15.570  23.642   3.614
 3186PAPC   C1A35939  15.957  23.918   3.637
 3186PAPC   D2A35940  15.815  24.083   3.988
 3186PAPC   D3A35941  15.997  23.658   4.060
 3186PAPC   D4A35942  15.968  23.329   4.395
 3186PAPC   C5A35943  15.980  23.353   4.902
 3186PAPC   C1B35944  15.494  23.594   3.978
 3186PAPC   C2B35945  15.599  23.733   4.331
 3186PAPC   C3B35946  15.562  23.777   4.851
 3186PAPC   C4B35947  15.824  24.096   5.161
 3187PAPC   NC335948   7.135  19.173   2.877
 3187PAPC   PO435949   7.440  19.366   2.824
 3187PAPC   GL135950   7.434  19.537   3.183
 3187PAPC   GL235951   7.192  19.448   3.288
 3187PAPC   C1A35952   7.625  19.605   3.499
 3187PAPC   D2A35953   7.712  19.663   3.862
 3187PAPC   D3A35954   7.451  19.503   4.195
 3187PAPC   D4A35955   7.318  19.399   4.615
 3187PAPC   C5A35956   7.026  19.699   4.869
 3187PAPC   C1B35957   7.259  19.339   3.646
 3187PAPC   C2B35958   7.180  19.107   3.990
 3187PAPC   C3B35959   7.308  18.946   4.441
 3187PAPC   C4B35960   7.369  18.790   4.942
 3188PAPC   NC335961  18.038  34.867   3.040
 3188PAPC   PO435962  18.015  34.894   3.464
 3188PAPC   GL135963  18.141  35.161   3.779
 3188PAPC   GL235964  17.916  34.978   3.949
 3188PAPC   C1A35965  18.431  35.270   3.962
 3188PAPC   D2A35966  18.617  35.295   4.320
 3188PAPC   D3A35967  18.554  35.272   4.742
 3188PAPC   D4A35968  18.413  35.068   5.167
 3188PAPC   C5A35969  18.105  35.243   5.496
 3188PAPC   C1B35970  17.629  35.027   4.222
 3188PAPC   C2B35971  17.618  34.882   4.601
 3188PAPC   C3B35972  17.381  34.717   4.962
 3188PAPC   C4B35973  16.896  34.472   5.001
 3189PAPC   NC335974  22.797  13.281   3.825
 3189PAPC   PO435975  22.926  13.640   3.768
 3189PAPC   GL135976  22.826  13.724   4.158
 3189PAPC   GL235977  22.989  13.900   4.277
 3189PAPC   C1A35978  22.904  13.459   4.402
 3189PAPC   D2A35979  23.028  13.222   4.697
 3189PAPC   D3A35980  23.180  13.131   5.059
 3189PAPC   D4A35981  23.407  13.181   5.414
 3189PAPC   C5A35982  23.800  12.914   5.464
 3189PAPC   C1B35983  22.825  13.880   4.612
 3189PAPC   C2B35984  22.790  13.604   4.928
 3189PAPC   C3B35985  22.711  13.448   5.317
 3189PAPC   C4B35986  22.470  13.100   5.624
 3190PAPC   NC335987  18.827   4.341   4.120
 3190PAPC   PO435988  19.042   4.017   4.146
 3190PAPC   GL135989  19.152   3.961   4.574
 3190PAPC   GL235990  19.180   4.301   4.476
 3190PAPC   C1A35991  19.526   3.962   4.724
 3190PAPC   D2A35992  19.609   4.041   5.112
 3190PAPC   D3A35993  19.431   4.183   5.545
 3190PAPC   D4A35994  19.625   3.882   5.871
 3190PAPC   C5A35995  19.544   3.827   6.333
 3190PAPC   C1B35996  19.322   4.490   4.757
 3190PAPC   C2B35997  19.163   4.650   5.094
 3190PAPC   C3B35998  19.020   4.501   5.468
 3190PAPC   C4B35999  18.960   4.749   5.897
 3191PAPC   NC336000   9.925  30.197   3.174
 3191PAPC   PO436001   9.921  29.806   3.121
 3191PAPC   GL136002   9.697  29.638   3.404
 3191PAPC   GL236003   9.496  29.948   3.355
 3191PAPC   C1A36004   9.666  29.572   3.776
 3191PAPC   D2A36005   9.540  29.401   4.090
 3191PAPC   D3A36006   9.340  29.351   4.511
 3191PAPC   D4A36007   9.156  29.191   4.918
 3191PAPC   C5A36008   9.517  28.921   5.088
 3191PAPC   C1B36009   9.403  29.892   3.695
 3191PAPC   C2B36010   9.436  29.848   4.167
 3191PAPC   C3B36011   9.559  29.885   4.622
 3191PAPC   C4B36012   9.594  30.093   5.104
 3192PAPC   NC336013  35.794  23.125   3.899
 3192PAPC   PO436014  36.199  23.146   3.807
 3192PAPC   GL136015  36.408  23.416   4.155
 3192PAPC   GL236016  36.527  23.135   4.267
 3192PAPC   C1A36017  36.491  23.612   4.456
 3192PAPC   D2A36018  36.538  23.492   4.832
 3192PAPC   D3A36019  36.412  23.247   5.213
 3192PAPC   D4A36020  36.163  23.460   5.579
 3192PAPC   C5A36021  36.354  22.980   5.678
 3192PAPC   C1B36022  36.704  23.158   4.579
 3192PAPC   C2B36023  36.790  23.044   4.962
 3192PAPC   C3B36024  36.851  22.988   5.450
 3192PAPC   C4B36025  36.756  22.855   5.876
 3193PAPC   NC336026  23.178  23.342   3.312
 3193PAPC   PO436027  23.203  23.407   3.694
 3193PAPC   GL136028  23.276  23.480   4.165
 3193PAPC   GL236029  23.452  23.232   4.013
 3193PAPC   C1A36030  23.259  23.542   4.546
 3193PAPC   D2A36031  23.493  23.595   4.805
 3193PAPC   D3A36032  23.190  23.624   5.165
 3193PAPC   D4A36033  22.782  23.596   5.327
 3193PAPC   C5A36034  22.529  24.025   5.232
 3193PAPC   C1B36035  23.589  22.999   4.247
 3193PAPC   C2B36036  23.856  22.646   4.305
 3193PAPC   C3B36037  23.802  22.491   4.736
 3193PAPC   C4B36038  23.618  22.216   5.152
 3194PAPC   NC336039  29.494  35.636   3.555
 3194PAPC   PO436040  29.439  35.243   3.396
 3194PAPC   GL136041  29.478  35.018   3.806
 3194PAPC   GL236042  29.423  35.335   3.919
 3194PAPC   C1A36043  29.708  35.017   4.071
 3194PAPC   D2A36044  29.807  34.723   4.372
 3194PAPC   D3A36045  29.845  34.315   4.251
 3194PAPC   D4A36046  29.984  34.228   3.882
 3194PAPC   C5A36047  29.916  34.667   3.697
 3194PAPC   C1B36048  29.256  35.291   4.192
 3194PAPC   C2B36049  29.400  34.981   4.428
 3194PAPC   C3B36050  29.507  34.811   4.816
 3194PAPC   C4B36051  29.714  34.629   5.205
 3195PAPC   NC336052  27.427  11.543   3.167
 3195PAPC   PO436053  27.465  11.505   3.586
 3195PAPC   GL136054  27.417  11.253   3.990
 3195PAPC   GL236055  27.561  11.510   4.071
 3195PAPC   C1A36056  27.557  11.066   4.314
 3195PAPC   D2A36057  27.315  10.986   4.608
 3195PAPC   D3A36058  27.395  10.757   4.952
 3195PAPC   D4A36059  27.071  11.042   5.234
 3195PAPC   C5A36060  27.420  11.306   5.083
 3195PAPC   C1B36061  27.716  11.615   4.334
 3195PAPC   C2B36062  27.885  11.755   4.704
 3195PAPC   C3B36063  27.871  12.117   5.036
 3195PAPC   C4B36064  27.895  12.369   5.386
 3196PAPC   NC336065  24.045  20.767   3.511
 3196PAPC   PO436066  24.453  20.725   3.618
 3196PAPC   GL136067  24.687  20.913   3.858
 3196PAPC   GL236068  24.872  20.834   4.043
 3196PAPC   C1A36069  24.640  21.243   3.851
 3196PAPC   D2A36070  24.537  21.517   4.116
 3196PAPC   D3A36071  24.666  21.432   4.545
 3196PAPC   D4A36072  24.955  21.421   4.816
 3196PAPC   C5A36073  25.026  21.130   5.283
 3196PAPC   C1B36074  24.853  21.041   4.384
 3196PAPC   C2B36075  25.044  20.948   4.735
 3196PAPC   C3B36076  25.407  21.127   4.957
 3196PAPC   C4B36077  25.547  21.112   5.489
 3197PAPC   NC336078  24.080  31.577   3.655
 3197PAPC   PO436079  24.130  31.955   3.490
 3197PAPC   GL136080  24.400  32.108   3.853
 3197PAPC   GL236081  24.150  32.256   3.935
 3197PAPC   C1A36082  24.525  32.027   4.167
 3197PAPC   D2A36083  24.503  31.844   4.493
 3197PAPC   D3A36084  24.308  31.482   4.372
 3197PAPC   D4A36085  24.230  31.222   4.032
 3197PAPC   C5A36086  23.715  31.291   3.995
 3197PAPC   C1B36087  24.262  32.299   4.336
 3197PAPC   C2B36088  24.556  32.318   4.626
 3197PAPC   C3B36089  24.633  32.580   5.003
 3197PAPC   C4B36090  24.573  32.885   5.344
 3198PAPC   NC336091   8.720  19.013   3.441
 3198PAPC   PO436092   8.674  18.645   3.370
 3198PAPC   GL136093   8.390  18.576   3.669
 3198PAPC   GL236094   8.498  18.651   3.875
 3198PAPC   C1A36095   8.253  18.265   3.771
 3198PAPC   D2A36096   8.105  18.055   4.013
 3198PAPC   D3A36097   8.413  17.855   4.255
 3198PAPC   D4A36098   8.572  17.941   4.692
 3198PAPC   C5A36099   9.030  18.085   4.899
 3198PAPC   C1B36100   8.387  18.913   4.187
 3198PAPC   C2B36101   8.323  18.990   4.613
 3198PAPC   C3B36102   8.434  18.878   5.047
 3198PAPC   C4B36103   8.607  18.630   5.499
 3199PAPC   NC336104  15.953   6.283   3.563
 3199PAPC   PO436105  16.321   6.442   3.571
 3199PAPC   GL136106  16.292   6.337   3.954
 3199PAPC   GL236107  16.175   6.505   4.131
 3199PAPC   C1A36108  16.617   6.395   4.145
 3199PAPC   D2A36109  16.602   6.175   4.463
 3199PAPC   D3A36110  16.708   5.798   4.597
 3199PAPC   D4A36111  16.753   5.466   4.287
 3199PAPC   C5A36112  17.099   5.185   4.253
 3199PAPC   C1B36113  16.248   6.412   4.515
 3199PAPC   C2B36114  16.398   6.424   4.903
 3199PAPC   C3B36115  16.362   6.599   5.321
 3199PAPC   C4B36116  16.233   6.779   5.682
 3200PAPC   NC336117  33.721  25.439   3.544
 3200PAPC   PO436118  33.365  25.477   3.721
 3200PAPC   GL136119  33.428  25.327   4.092
 3200PAPC   GL236120  33.272  25.122   4.008
 3200PAPC   C1A36121  33.640  25.337   4.342
 3200PAPC   D2A36122  33.755  25.381   4.694
 3200PAPC   D3A36123  33.428  25.139   4.959
 3200PAPC   D4A36124  33.096  25.055   5.336
 3200PAPC   C5A36125  33.331  24.616   5.484
 3200PAPC   C1B36126  33.432  24.855   4.241
 3200PAPC   C2B36127  33.402  24.709   4.623
 3200PAPC   C3B36128  33.678  24.671   5.011
 3200PAPC   C4B36129  33.892  24.599   5.455
 3201PAPC   NC336130  30.674  34.007   3.137
 3201PAPC   PO436131  30.904  33.704   3.272
 3201PAPC   GL136132  30.897  33.526   3.615
 3201PAPC   GL236133  30.841  33.206   3.550
 3201PAPC   C1A36134  30.736  33.433   3.931
 3201PAPC   D2A36135  30.753  33.499   4.303
 3201PAPC   D3A36136  30.632  33.178   4.633
 3201PAPC   D4A36137  31.028  33.079   4.878
 3201PAPC   C5A36138  30.909  32.681   5.132
 3201PAPC   C1B36139  30.847  32.963   3.828
 3201PAPC   C2B36140  30.669  32.916   4.164
 3201PAPC   C3B36141  30.606  32.691   4.570
 3201PAPC   C4B36142  30.474  32.443   4.937
 3202PAPC   NC336143  27.768  16.202   3.357
 3202PAPC   PO436144  27.499  15.919   3.333
 3202PAPC   GL136145  27.461  15.670   3.661
 3202PAPC   GL236146  27.308  15.910   3.788
 3202PAPC   C1A36147  27.391  15.273   3.751
 3202PAPC   D2A36148  27.592  15.002   3.952
 3202PAPC   D3A36149  27.765  14.590   3.932
 3202PAPC   D4A36150  27.816  14.816   4.334
 3202PAPC   C5A36151  27.699  14.781   4.817
 3202PAPC   C1B36152  27.354  15.895   4.166
 3202PAPC   C2B36153  27.476  16.043   4.527
 3202PAPC   C3B36154  27.385  15.858   4.923
 3202PAPC   C4B36155  27.195  15.498   5.251
 3203PAPC   NC336156  22.745  11.825   3.274
 3203PAPC   PO436157  22.807  12.098   3.549
 3203PAPC   GL136158  22.868  11.990   3.962
 3203PAPC   GL236159  22.889  11.737   3.998
 3203PAPC   C1A36160  22.752  12.029   4.283
 3203PAPC   D2A36161  22.661  12.394   4.425
 3203PAPC   D3A36162  22.885  12.389   4.835
 3203PAPC   D4A36163  23.211  12.167   4.831
 3203PAPC   C5A36164  23.365  11.786   5.082
 3203PAPC   C1B36165  23.016  11.610   4.309
 3203PAPC   C2B36166  23.201  11.620   4.648
 3203PAPC   C3B36167  23.126  11.361   5.058
 3203PAPC   C4B36168  22.935  10.929   5.227
 3204PAPC   NC336169  10.044   2.507   2.671
 3204PAPC   PO436170   9.651   2.423   2.761
 3204PAPC   GL136171   9.511   2.312   3.191
 3204PAPC   GL236172   9.419   2.577   3.096
 3204PAPC   C1A36173   9.577   2.407   3.545
 3204PAPC   D2A36174   9.611   2.364   3.943
 3204PAPC   D3A36175   9.484   2.669   4.188
 3204PAPC   D4A36176   9.680   2.511   4.575
 3204PAPC   C5A36177   9.379   2.317   4.869
 3204PAPC   C1B36178   9.560   2.815   3.354
 3204PAPC   C2B36179   9.483   2.961   3.754
 3204PAPC   C3B36180   9.302   3.164   4.202
 3204PAPC   C4B36181   9.287   3.112   4.727
 3205PAPC   NC336182  10.290  28.972   2.983
 3205PAPC   PO436183  10.594  28.751   3.119
 3205PAPC   GL136184  10.663  28.595   3.428
 3205PAPC   GL236185  10.539  28.407   3.565
 3205PAPC   C1A36186  10.845  28.729   3.736
 3205PAPC   D2A36187  10.731  28.773   4.119
 3205PAPC   D3A36188  10.738  28.865   4.542
 3205PAPC   D4A36189  11.026  28.907   4.870
 3205PAPC   C5A36190  11.419  28.953   5.089
 3205PAPC   C1B36191  10.272  28.463   3.747
 3205PAPC   C2B36192  10.204  28.506   4.187
 3205PAPC   C3B36193  10.311  28.565   4.651
 3205PAPC   C4B36194  10.517  28.855   5.030
 3206PAPC   NC336195  34.877  34.238   3.209
 3206PAPC   PO436196  34.551  34.258   3.373
 3206PAPC   GL136197  34.409  34.460   3.729
 3206PAPC   GL236198  34.545  34.206   3.843
 3206PAPC   C1A36199  34.378  34.631   4.064
 3206PAPC   D2A36200  34.385  34.876   4.336
 3206PAPC   D3A36201  34.128  34.955   4.721
 3206PAPC   D4A36202  34.133  35.257   4.986
 3206PAPC   C5A36203  33.895  35.156   5.315
 3206PAPC   C1B36204  34.717  34.270   4.137
 3206PAPC   C2B36205  34.532  34.381   4.483
 3206PAPC   C3B36206  34.594  34.755   4.736
 3206PAPC   C4B36207  34.610  35.206   5.041
 3207PAPC   NC336208   5.861   7.428   3.906
 3207PAPC   PO436209   5.656   7.739   3.733
 3207PAPC   GL136210   5.704   8.047   4.056
 3207PAPC   GL236211   5.926   7.799   4.167
 3207PAPC   C1A36212   5.464   8.191   4.273
 3207PAPC   D2A36213   5.203   8.068   4.516
 3207PAPC   D3A36214   4.981   8.208   4.844
 3207PAPC   D4A36215   4.777   8.385   5.185
 3207PAPC   C5A36216   4.619   8.705   5.549
 3207PAPC   C1B36217   6.200   8.004   4.323
 3207PAPC   C2B36218   6.555   8.198   4.494
 3207PAPC   C3B36219   6.732   8.484   4.770
 3207PAPC   C4B36220   6.880   8.762   5.164
 3208PAPC   NC336221  31.110  21.347   3.364
 3208PAPC   PO436222  31.523  21.286   3.321
 3208PAPC   GL136223  31.446  21.261   3.667
 3208PAPC   GL236224  31.350  21.056   3.841
 3208PAPC   C1A36225  31.350  21.479   3.912
 3208PAPC   D2A36226  31.184  21.409   4.324
 3208PAPC   D3A36227  31.033  21.811   4.445
 3208PAPC   D4A36228  30.993  22.010   4.852
 3208PAPC   C5A36229  31.203  22.459   4.858
 3208PAPC   C1B36230  31.383  21.050   4.139
 3208PAPC   C2B36231  31.483  21.081   4.549
 3208PAPC   C3B36232  31.713  21.089   4.974
 3208PAPC   C4B36233  32.067  20.772   5.157
 3209PAPC   NC336234   0.799  14.930   3.799
 3209PAPC   PO436235   1.040  14.834   4.062
 3209PAPC   GL136236   1.013  14.975   4.485
 3209PAPC   GL236237   1.184  15.209   4.420
 3209PAPC   C1A36238   1.076  14.931   4.869
 3209PAPC   D2A36239   0.804  15.214   4.951
 3209PAPC   D3A36240   0.670  15.439   4.557
 3209PAPC   D4A36241   0.260  15.633   4.488
 3209PAPC   C5A36242  -0.148  15.395   4.319
 3209PAPC   C1B36243   1.093  15.577   4.588
 3209PAPC   C2B36244   1.153  15.897   4.812
 3209PAPC   C3B36245   1.505  15.910   5.053
 3209PAPC   C4B36246   1.708  15.810   5.459
 3210PAPC   NC336247   2.204  10.245   3.317
 3210PAPC   PO436248   1.975  10.467   3.516
 3210PAPC   GL136249   1.914  10.420   3.956
 3210PAPC   GL236250   1.619  10.412   4.014
 3210PAPC   C1A36251   2.009  10.309   4.309
 3210PAPC   D2A36252   2.095  10.085   4.578
 3210PAPC   D3A36253   2.225  10.131   5.015
 3210PAPC   D4A36254   2.331   9.866   5.327
 3210PAPC   C5A36255   2.048  10.109   5.603
 3210PAPC   C1B36256   1.466  10.584   4.281
 3210PAPC   C2B36257   1.355  10.888   4.618
 3210PAPC   C3B36258   1.224  10.910   5.107
 3210PAPC   C4B36259   1.152  10.636   5.466
 3211PAPC   NC336260  33.582  12.315   3.535
 3211PAPC   PO436261  33.778  12.013   3.357
 3211PAPC   GL136262  33.952  11.798   3.618
 3211PAPC   GL236263  34.270  11.836   3.477
 3211PAPC   C1A36264  33.985  11.793   4.017
 3211PAPC   D2A36265  33.855  11.774   4.445
 3211PAPC   D3A36266  34.177  11.783   4.755
 3211PAPC   D4A36267  34.193  11.796   5.197
 3211PAPC   C5A36268  33.933  12.153   5.409
 3211PAPC   C1B36269  34.386  12.017   3.791
 3211PAPC   C2B36270  34.358  12.090   4.199
 3211PAPC   C3B36271  34.397  12.306   4.639
 3211PAPC   C4B36272  34.489  12.186   5.080
 3212PAPC   NC336273  35.299  33.048   3.531
 3212PAPC   PO436274  34.952  32.918   3.757
 3212PAPC   GL136275  35.062  33.042   4.173
 3212PAPC   GL236276  34.752  32.996   4.280
 3212PAPC   C1A36277  35.051  33.314   4.384
 3212PAPC   D2A36278  34.983  33.390   4.836
 3212PAPC   D3A36279  35.339  33.603   5.060
 3212PAPC   D4A36280  35.202  33.276   5.274
 3212PAPC   C5A36281  34.952  32.942   5.095
 3212PAPC   C1B36282  34.576  33.005   4.650
 3212PAPC   C2B36283  34.513  33.064   5.099
 3212PAPC   C3B36284  34.609  33.364   5.398
 3212PAPC   C4B36285  34.949  33.435   5.682
 3213PAPC   NC336286  32.239  20.959   3.173
 3213PAPC   PO436287  32.059  21.289   3.377
 3213PAPC   GL136288  31.853  21.437   3.740
 3213PAPC   GL236289  31.930  21.210   3.861
 3213PAPC   C1A36290  31.931  21.637   3.978
 3213PAPC   D2A36291  31.646  21.681   4.272
 3213PAPC   D3A36292  31.600  21.572   4.691
 3213PAPC   D4A36293  31.210  21.325   4.957
 3213PAPC   C5A36294  30.796  21.372   4.681
 3213PAPC   C1B36295  31.786  21.245   4.188
 3213PAPC   C2B36296  31.812  20.844   4.332
 3213PAPC   C3B36297  31.681  20.635   4.755
 3213PAPC   C4B36298  31.502  20.607   5.191
 3214PAPC   NC336299   8.914   0.983   2.855
 3214PAPC   PO436300   8.936   1.364   3.034
 3214PAPC   GL136301   8.883   1.316   3.484
 3214PAPC   GL236302   9.005   1.627   3.406
 3214PAPC   C1A36303   8.936   1.138   3.768
 3214PAPC   D2A36304   9.000   1.126   4.179
 3214PAPC   D3A36305   9.455   1.021   4.291
 3214PAPC   D4A36306   9.920   0.941   4.408
 3214PAPC   C5A36307  10.259   0.684   4.653
 3214PAPC   C1B36308   9.001   1.744   3.768
 3214PAPC   C2B36309   9.249   1.991   4.048
 3214PAPC   C3B36310   9.608   1.992   4.397
 3214PAPC   C4B36311   9.891   2.124   4.803
 3215PAPC   NC336312  22.163   2.736   2.928
 3215PAPC   PO436313  22.528   2.596   3.110
 3215PAPC   GL136314  22.601   2.330   3.455
 3215PAPC   GL236315  22.636   2.676   3.572
 3215PAPC   C1A36316  22.703   1.978   3.563
 3215PAPC   D2A36317  22.858   1.652   3.716
 3215PAPC   D3A36318  22.966   1.493   4.132
 3215PAPC   D4A36319  22.917   1.222   4.528
 3215PAPC   C5A36320  22.894   1.218   4.978
 3215PAPC   C1B36321  22.693   2.715   3.969
 3215PAPC   C2B36322  22.863   2.531   4.285
 3215PAPC   C3B36323  23.041   2.238   4.645
 3215PAPC   C4B36324  23.229   2.200   5.056
 3216PAPC   NC336325  26.469  26.455   2.841
 3216PAPC   PO436326  26.576  26.823   3.047
 3216PAPC   GL136327  26.420  26.813   3.421
 3216PAPC   GL236328  26.651  26.576   3.433
 3216PAPC   C1A36329  26.384  26.947   3.797
 3216PAPC   D2A36330  26.126  26.984   4.071
 3216PAPC   D3A36331  26.028  26.841   4.503
 3216PAPC   D4A36332  26.238  26.935   4.908
 3216PAPC   C5A36333  26.726  26.815   4.933
 3216PAPC   C1B36334  26.770  26.588   3.758
 3216PAPC   C2B36335  26.931  26.718   4.078
 3216PAPC   C3B36336  27.020  27.019   4.475
 3216PAPC   C4B36337  26.703  27.278   4.790
 3217PAPC   NC336338  17.265  33.299   2.883
 3217PAPC   PO436339  16.858  33.356   3.031
 3217PAPC   GL136340  16.879  33.308   3.475
 3217PAPC   GL236341  17.174  33.365   3.400
 3217PAPC   C1A36342  16.717  33.623   3.607
 3217PAPC   D2A36343  16.327  33.603   3.720
 3217PAPC   D3A36344  16.197  33.892   4.021
 3217PAPC   D4A36345  16.364  34.276   4.229
 3217PAPC   C5A36346  16.268  34.565   3.874
 3217PAPC   C1B36347  17.182  33.712   3.446
 3217PAPC   C2B36348  17.036  34.078   3.601
 3217PAPC   C3B36349  17.230  34.205   4.113
 3217PAPC   C4B36350  17.290  34.256   4.598
 3218PAPC   NC336351  14.415  14.371   3.147
 3218PAPC   PO436352  14.381  14.590   3.475
 3218PAPC   GL136353  14.182  14.571   3.855
 3218PAPC   GL236354  14.201  14.307   3.804
 3218PAPC   C1A36355  14.035  14.764   4.122
 3218PAPC   D2A36356  13.707  14.694   4.350
 3218PAPC   D3A36357  13.636  15.141   4.162
 3218PAPC   D4A36358  13.411  15.490   4.228
 3218PAPC   C5A36359  13.460  15.205   4.622
 3218PAPC   C1B36360  13.996  14.242   4.099
 3218PAPC   C2B36361  13.845  14.209   4.499
 3218PAPC   C3B36362  13.467  14.210   4.842
 3218PAPC   C4B36363  13.142  14.280   5.118
 3219PAPC   NC336364  12.410   8.358   3.120
 3219PAPC   PO436365  12.553   8.141   3.387
 3219PAPC   GL136366  12.430   8.065   3.787
 3219PAPC   GL236367  12.404   7.843   3.686
 3219PAPC   C1A36368  12.274   7.988   4.113
 3219PAPC   D2A36369  12.219   7.897   4.482
 3219PAPC   D3A36370  12.159   7.737   4.901
 3219PAPC   D4A36371  12.003   7.323   5.110
 3219PAPC   C5A36372  11.545   7.383   5.059
 3219PAPC   C1B36373  12.429   7.631   3.921
 3219PAPC   C2B36374  12.431   7.471   4.320
 3219PAPC   C3B36375  12.228   7.231   4.688
 3219PAPC   C4B36376  12.293   6.907   5.095
 3220PAPC   NC336377   7.219  30.864   2.700
 3220PAPC   PO436378   7.292  31.189   2.930
 3220PAPC   GL136379   7.060  31.096   3.359
 3220PAPC   GL236380   7.249  31.238   3.456
 3220PAPC   C1A36381   6.912  31.038   3.706
 3220PAPC   D2A36382   6.667  30.789   3.953
 3220PAPC   D3A36383   6.493  30.972   4.302
 3220PAPC   D4A36384   6.392  30.974   4.755
 3220PAPC   C5A36385   6.778  30.663   4.825
 3220PAPC   C1B36386   7.292  31.521   3.631
 3220PAPC   C2B36387   7.345  31.470   4.035
 3220PAPC   C3B36388   7.435  31.355   4.503
 3220PAPC   C4B36389   7.705  31.250   4.929
 3221PAPC   NC336390   7.486   4.307   4.030
 3221PAPC   PO436391   7.415   4.146   3.688
 3221PAPC   GL136392   7.124   3.852   3.823
 3221PAPC   GL236393   7.021   3.942   4.096
 3221PAPC   C1A36394   7.296   3.499   3.783
 3221PAPC   D2A36395   7.646   3.304   3.806
 3221PAPC   D3A36396   7.667   3.133   4.238
 3221PAPC   D4A36397   7.905   3.097   4.590
 3221PAPC   C5A36398   7.556   3.003   4.910
 3221PAPC   C1B36399   6.991   3.804   4.409
 3221PAPC   C2B36400   6.870   4.004   4.803
 3221PAPC   C3B36401   6.680   4.138   5.278
 3221PAPC   C4B36402   6.465   3.920   5.596
 3222PAPC   NC336403  12.973  24.128   3.097
 3222PAPC   PO436404  12.637  24.346   3.187
 3222PAPC   GL136405  12.635  24.555   3.564
 3222PAPC   GL236406  12.371  24.358   3.594
 3222PAPC   C1A36407  12.407  24.866   3.640
 3222PAPC   D2A36408  12.360  24.999   3.993
 3222PAPC   D3A36409  12.351  25.046   4.438
 3222PAPC   D4A36410  12.587  25.080   4.761
 3222PAPC   C5A36411  12.902  24.839   4.964
 3222PAPC   C1B36412  12.129  24.323   3.892
 3222PAPC   C2B36413  11.813  24.382   4.181
 3222PAPC   C3B36414  11.529  24.482   4.543
 3222PAPC   C4B36415  11.282  24.512   5.007
 3223PAPC   NC336416  29.886  30.769   2.622
 3223PAPC   PO436417  29.662  30.789   2.951
 3223PAPC   GL136418  29.506  30.645   3.349
 3223PAPC   GL236419  29.756  30.841   3.430
 3223PAPC   C1A36420  29.257  30.571   3.595
 3223PAPC   D2A36421  29.014  30.600   3.936
 3223PAPC   D3A36422  29.134  30.959   4.196
 3223PAPC   D4A36423  28.846  30.708   4.554
 3223PAPC   C5A36424  28.471  30.645   4.822
 3223PAPC   C1B36425  29.889  30.730   3.723
 3223PAPC   C2B36426  30.038  30.813   4.107
 3223PAPC   C3B36427  30.167  30.938   4.535
 3223PAPC   C4B36428  30.488  31.102   4.913
 3224PAPC   NC336429  32.526   0.328   2.907
 3224PAPC   PO436430  32.732   0.532   3.184
 3224PAPC   GL136431  32.668   0.440   3.555
 3224PAPC   GL236432  32.682   0.716   3.618
 3224PAPC   C1A36433  32.464   0.331   3.866
 3224PAPC   D2A36434  32.365   0.364   4.288
 3224PAPC   D3A36435  32.412   0.527   4.702
 3224PAPC   D4A36436  32.101   0.508   5.011
 3224PAPC   C5A36437  32.075   0.252   5.426
 3224PAPC   C1B36438  32.724   0.648   3.997
 3224PAPC   C2B36439  32.803   0.830   4.416
 3224PAPC   C3B36440  32.800   0.757   4.936
 3224PAPC   C4B36441  32.554   0.463   5.268
 3225PAPC   NC336442  20.832  30.316   3.914
 3225PAPC   PO436443  20.600  30.592   4.123
 3225PAPC   GL136444  20.479  30.780   4.516
 3225PAPC   GL236445  20.724  30.886   4.587
 3225PAPC   C1A36446  20.290  30.617   4.818
 3225PAPC   D2A36447  20.009  30.756   4.531
 3225PAPC   D3A36448  19.918  30.935   4.923
 3225PAPC   D4A36449  20.324  31.139   5.047
 3225PAPC   C5A36450  20.289  31.356   5.506
 3225PAPC   C1B36451  20.769  30.731   4.920
 3225PAPC   C2B36452  20.734  30.461   5.228
 3225PAPC   C3B36453  20.604  30.219   5.525
 3225PAPC   C4B36454  20.582  29.774   5.780
 3226PAPC   NC336455  16.986   4.182   3.798
 3226PAPC   PO436456  16.927   3.784   3.771
 3226PAPC   GL136457  16.616   3.490   3.793
 3226PAPC   GL236458  16.489   3.655   4.010
 3226PAPC   C1A36459  16.522   3.162   3.953
 3226PAPC   D2A36460  16.841   2.824   3.985
 3226PAPC   D3A36461  17.274   2.887   4.075
 3226PAPC   D4A36462  17.643   2.890   4.345
 3226PAPC   C5A36463  17.619   2.851   4.863
 3226PAPC   C1B36464  16.326   3.447   4.286
 3226PAPC   C2B36465  16.136   3.147   4.570
 3226PAPC   C3B36466  16.165   2.763   4.721
 3226PAPC   C4B36467  16.445   2.323   4.666
 3227PAPC   NC336468   0.168  18.130   3.296
 3227PAPC   PO436469   0.413  18.436   3.361
 3227PAPC   GL136470   0.696  18.286   3.654
 3227PAPC   GL236471   0.548  18.412   3.918
 3227PAPC   C1A36472   0.693  18.038   3.964
 3227PAPC   D2A36473   0.625  17.893   4.348
 3227PAPC   D3A36474   0.894  17.986   4.722
 3227PAPC   D4A36475   0.980  17.671   5.049
 3227PAPC   C5A36476   0.947  17.335   5.391
 3227PAPC   C1B36477   0.761  18.410   4.215
 3227PAPC   C2B36478   0.952  18.480   4.581
 3227PAPC   C3B36479   1.142  18.458   5.041
 3227PAPC   C4B36480   1.237  18.836   5.312
 3228PAPC   NC336481  10.813  17.016   2.807
 3228PAPC   PO436482  11.227  17.084   2.795
 3228PAPC   GL136483  11.291  16.985   3.207
 3228PAPC   GL236484  11.574  16.863   3.240
 3228PAPC   C1A36485  11.274  17.230   3.496
 3228PAPC   D2A36486  11.154  17.436   3.751
 3228PAPC   D3A36487  11.243  17.623   4.119
 3228PAPC   D4A36488  11.168  17.734   4.567
 3228PAPC   C5A36489  11.059  18.116   4.892
 3228PAPC   C1B36490  11.603  16.812   3.597
 3228PAPC   C2B36491  11.495  16.757   3.944
 3228PAPC   C3B36492  11.563  16.678   4.407
 3228PAPC   C4B36493  11.578  16.682   4.901
 3229PAPC   NC336494  33.243   2.561   3.778
 3229PAPC   PO436495  33.217   2.343   3.462
 3229PAPC   GL136496  32.925   2.075   3.653
 3229PAPC   GL236497  32.938   2.239   3.886
 3229PAPC   C1A36498  32.969   1.791   3.883
 3229PAPC   D2A36499  32.947   1.845   4.262
 3229PAPC   D3A36500  33.110   1.840   4.639
 3229PAPC   D4A36501  33.009   1.726   5.122
 3229PAPC   C5A36502  33.086   2.147   5.362
 3229PAPC   C1B36503  33.229   2.102   4.046
 3229PAPC   C2B36504  33.473   2.082   4.391
 3229PAPC   C3B36505  33.568   1.998   4.777
 3229PAPC   C4B36506  33.592   2.012   5.237
 3230PAPC   NC336507  27.876  18.948   3.210
 3230PAPC   PO436508  27.441  18.896   3.253
 3230PAPC   GL136509  27.242  18.719   3.593
 3230PAPC   GL236510  27.281  18.958   3.722
 3230PAPC   C1A36511  27.250  18.505   3.910
 3230PAPC   D2A36512  27.260  18.316   4.198
 3230PAPC   D3A36513  26.958  18.394   4.458
 3230PAPC   D4A36514  26.712  18.457   4.746
 3230PAPC   C5A36515  26.409  18.285   4.954
 3230PAPC   C1B36516  27.473  18.983   4.032
 3230PAPC   C2B36517  27.784  19.079   4.330
 3230PAPC   C3B36518  28.067  18.904   4.612
 3230PAPC   C4B36519  28.005  18.937   5.131
 3231PAPC   NC336520  30.738  16.426   3.625
 3231PAPC   PO436521  30.788  16.689   3.336
 3231PAPC   GL136522  30.591  16.968   3.592
 3231PAPC   GL236523  30.441  16.778   3.703
 3231PAPC   C1A36524  30.649  17.264   3.829
 3231PAPC   D2A36525  30.279  17.431   3.922
 3231PAPC   D3A36526  30.294  17.457   4.394
 3231PAPC   D4A36527  30.080  17.684   4.671
 3231PAPC   C5A36528  29.929  18.107   4.516
 3231PAPC   C1B36529  30.336  16.972   3.976
 3231PAPC   C2B36530  30.010  17.097   4.189
 3231PAPC   C3B36531  29.643  17.191   4.413
 3231PAPC   C4B36532  29.224  17.301   4.613
 3232PAPC   NC336533   8.950  33.874   2.842
 3232PAPC   PO436534   9.251  33.834   3.130
 3232PAPC   GL136535   9.080  33.837   3.604
 3232PAPC   GL236536   9.359  33.890   3.644
 3232PAPC   C1A36537   8.855  33.672   3.857
 3232PAPC   D2A36538   8.919  33.412   4.117
 3232PAPC   D3A36539   8.878  33.493   4.574
 3232PAPC   D4A36540   9.049  33.193   4.891
 3232PAPC   C5A36541   9.108  33.020   5.340
 3232PAPC   C1B36542   9.454  34.135   3.865
 3232PAPC   C2B36543   9.600  34.312   4.228
 3232PAPC   C3B36544   9.978  34.320   4.498
 3232PAPC   C4B36545   9.979  34.432   4.962
 3233PAPC   NC336546  10.234   9.478   3.569
 3233PAPC   PO436547   9.898   9.505   3.725
 3233PAPC   GL136548   9.702   9.331   4.003
 3233PAPC   GL236549   9.798   9.532   4.140
 3233PAPC   C1A36550   9.782   9.064   4.311
 3233PAPC   D2A36551   9.880   9.135   4.712
 3233PAPC   D3A36552  10.163   8.816   4.763
 3233PAPC   D4A36553  10.191   9.091   5.113
 3233PAPC   C5A36554   9.993   9.514   5.078
 3233PAPC   C1B36555   9.780   9.550   4.547
 3233PAPC   C2B36556   9.556   9.650   4.891
 3233PAPC   C3B36557   9.183   9.785   5.135
 3233PAPC   C4B36558   8.903  10.108   5.375
 3234PAPC   NC336559  24.234   1.386   3.297
 3234PAPC   PO436560  24.275   1.192   3.651
 3234PAPC   GL136561  24.372   0.799   3.698
 3234PAPC   GL236562  24.483   0.879   3.912
 3234PAPC   C1A36563  24.096   0.662   3.903
 3234PAPC   D2A36564  23.935   0.416   4.144
 3234PAPC   D3A36565  23.837   0.455   4.596
 3234PAPC   D4A36566  23.476   0.533   4.811
 3234PAPC   C5A36567  23.274   0.259   5.101
 3234PAPC   C1B36568  24.479   1.022   4.226
 3234PAPC   C2B36569  24.247   0.919   4.550
 3234PAPC   C3B36570  24.140   0.740   5.007
 3234PAPC   C4B36571  23.707   0.597   5.228
 3235PAPC   NC336572  27.961   4.307   3.532
 3235PAPC   PO436573  28.144   4.575   3.695
 3235PAPC   GL136574  28.111   4.648   4.105
 3235PAPC   GL236575  28.070   4.269   4.097
 3235PAPC   C1A36576  28.163   4.743   4.430
 3235PAPC   D2A36577  28.105   4.658   4.791
 3235PAPC   D3A36578  27.943   4.715   5.183
 3235PAPC   D4A36579  27.997   5.030   5.525
 3235PAPC   C5A36580  28.419   5.042   5.413
 3235PAPC   C1B36581  28.056   4.223   4.446
 3235PAPC   C2B36582  28.121   4.194   4.858
 3235PAPC   C3B36583  28.186   4.107   5.306
 3235PAPC   C4B36584  27.900   4.296   5.610
 3236PAPC   NC336585   9.319  33.408   3.419
 3236PAPC   PO436586   9.190  33.053   3.323
 3236PAPC   GL136587   9.382  32.722   3.694
 3236PAPC   GL236588   9.193  32.951   3.783
 3236PAPC   C1A36589   9.524  32.595   3.973
 3236PAPC   D2A36590   9.474  32.305   4.259
 3236PAPC   D3A36591   9.566  32.284   4.721
 3236PAPC   D4A36592   9.354  32.289   5.122
 3236PAPC   C5A36593   9.027  31.962   5.232
 3236PAPC   C1B36594   9.166  33.043   4.159
 3236PAPC   C2B36595   9.178  32.851   4.528
 3236PAPC   C3B36596   9.104  32.682   4.964
 3236PAPC   C4B36597   9.015  32.467   5.392
 3237PAPC   NC336598  19.134  27.791   3.500
 3237PAPC   PO436599  18.849  28.122   3.540
 3237PAPC   GL136600  18.894  28.441   3.791
 3237PAPC   GL236601  18.670  28.356   3.922
 3237PAPC   C1A36602  19.039  28.507   4.135
 3237PAPC   D2A36603  19.168  28.852   4.329
 3237PAPC   D3A36604  19.486  29.153   4.282
 3237PAPC   D4A36605  19.713  29.274   4.615
 3237PAPC   C5A36606  20.137  28.984   4.640
 3237PAPC   C1B36607  18.637  28.524   4.264
 3237PAPC   C2B36608  18.760  28.729   4.568
 3237PAPC   C3B36609  18.750  28.858   4.994
 3237PAPC   C4B36610  18.522  28.973   5.391
 3238POPE   NH336611  14.534  19.026   3.363
 3238POPE   PO436612  14.634  18.670   3.373
 3238POPE   GL136613  14.692  18.746   3.719
 3238POPE   GL236614  14.913  18.913   3.723
 3238POPE   C1A36615  14.581  18.767   4.086
 3238POPE   D2A36616  14.631  18.982   4.595
 3238POPE   C3A36617  14.451  18.829   5.067
 3238POPE   C4A36618  14.037  18.630   5.231
 3238POPE   C1B36619  15.142  18.806   4.027
 3238POPE   C2B36620  14.967  18.676   4.348
 3238POPE   C3B36621  14.885  18.591   4.842
 3238POPE   C4B36622  14.746  18.500   5.377
 3239POPE   NH336623   9.496  24.677   2.323
 3239POPE   PO436624   9.215  24.675   2.573
 3239POPE   GL136625   9.328  24.357   2.823
 3239POPE   GL236626   9.465  24.609   2.985
 3239POPE   C1A36627   9.410  24.149   3.223
 3239POPE   D2A36628   9.259  23.825   3.574
 3239POPE   C3A36629   9.187  23.967   3.992
 3239POPE   C4A36630   8.906  23.868   4.341
 3239POPE   C1B36631   9.338  24.604   3.359
 3239POPE   C2B36632   9.132  24.428   3.709
 3239POPE   C3B36633   8.801  24.339   4.110
 3239POPE   C4B36634   8.407  24.206   4.397
 3240POPE   NH336635   1.862  23.425   3.404
 3240POPE   PO436636   1.877  23.136   3.619
 3240POPE   GL136637   1.890  23.223   3.986
 3240POPE   GL236638   2.104  22.966   3.996
 3240POPE   C1A36639   1.834  23.319   4.435
 3240POPE   D2A36640   1.685  23.390   4.923
 3240POPE   C3A36641   1.739  23.277   5.423
 3240POPE   C4A36642   1.865  23.717   5.674
 3240POPE   C1B36643   2.114  22.734   4.291
 3240POPE   C2B36644   2.220  22.880   4.681
 3240POPE   C3B36645   2.252  23.065   5.140
 3240POPE   C4B36646   2.104  23.015   5.632
 3241POPE   NH336647  19.619  27.513   3.669
 3241POPE   PO436648  19.594  27.845   3.763
 3241POPE   GL136649  19.543  27.795   4.131
 3241POPE   GL236650  19.751  27.939   4.098
 3241POPE   C1A36651  19.600  27.566   4.448
 3241POPE   D2A36652  19.856  27.381   4.794
 3241POPE   C3A36653  19.779  27.303   5.241
 3241POPE   C4A36654  19.355  27.158   5.361
 3241POPE   C1B36655  19.768  28.007   4.443
 3241POPE   C2B36656  19.737  27.895   4.821
 3241POPE   C3B36657  19.976  27.779   5.239
 3241POPE   C4B36658  20.002  27.907   5.679
 3242POPE   NH336659   9.299   9.547   3.299
 3242POPE   PO436660   9.066   9.855   3.225
 3242POPE   GL136661   8.937   9.821   3.644
 3242POPE   GL236662   9.004   9.544   3.643
 3242POPE   C1A36663   8.626   9.928   3.925
 3242POPE   D2A36664   8.355   9.636   4.244
 3242POPE   C3A36665   8.580   9.284   4.458
 3242POPE   C4A36666   8.981   9.072   4.453
 3242POPE   C1B36667   9.272   9.408   3.897
 3242POPE   C2B36668   9.386   9.320   4.334
 3242POPE   C3B36669   9.268   9.148   4.818
 3242POPE   C4B36670   9.334   8.786   5.158
 3243POPE   NH336671  12.605   7.566   3.306
 3243POPE   PO436672  12.789   7.278   3.336
 3243POPE   GL136673  12.888   7.144   3.734
 3243POPE   GL236674  12.822   7.442   3.741
 3243POPE   C1A36675  12.777   7.192   4.120
 3243POPE   D2A36676  12.707   7.045   4.613
 3243POPE   C3A36677  12.774   6.940   5.081
 3243POPE   C4A36678  12.916   6.534   5.324
 3243POPE   C1B36679  13.124   7.454   4.022
 3243POPE   C2B36680  13.264   7.330   4.398
 3243POPE   C3B36681  13.164   7.366   4.930
 3243POPE   C4B36682  12.988   7.217   5.420
 3244POPE   NH336683  31.552  23.251   2.906
 3244POPE   PO436684  31.343  23.007   3.071
 3244POPE   GL136685  31.349  23.160   3.494
 3244POPE   GL236686  31.456  23.457   3.461
 3244POPE   C1A36687  31.346  23.072   3.968
 3244POPE   D2A36688  31.462  23.080   4.456
 3244POPE   C3A36689  31.415  22.943   4.919
 3244POPE   C4A36690  31.510  22.685   5.307
 3244POPE   C1B36691  31.470  23.515   3.853
 3244POPE   C2B36692  31.297  23.538   4.248
 3244POPE   C3B36693  31.144  23.456   4.694
 3244POPE   C4B36694  31.021  23.226   5.123
 3245POPE   NH336695  23.020   5.833   3.541
 3245POPE   PO436696  23.103   6.177   3.490
 3245POPE   GL136697  23.214   6.334   3.853
 3245POPE   GL236698  23.370   6.066   3.794
 3245POPE   C1A36699  22.934   6.313   4.210
 3245POPE   D2A36700  22.776   6.476   4.678
 3245POPE   C3A36701  22.813   6.255   5.036
 3245POPE   C4A36702  22.730   6.118   5.511
 3245POPE   C1B36703  23.728   6.054   3.747
 3245POPE   C2B36704  23.988   6.059   4.068
 3245POPE   C3B36705  24.256   6.126   4.506
 3245POPE   C4B36706  24.413   6.146   4.988
 3246POPE   NH336707  15.484  15.568   3.149
 3246POPE   PO436708  15.371  15.580   3.535
 3246POPE   GL136709  15.714  15.667   3.893
 3246POPE   GL236710  15.454  15.703   4.062
 3246POPE   C1A36711  15.841  15.253   4.064
 3246POPE   D2A36712  15.819  14.875   4.364
 3246POPE   C3A36713  15.803  14.442   4.596
 3246POPE   C4A36714  16.182  14.290   4.795
 3246POPE   C1B36715  15.488  15.603   4.430
 3246POPE   C2B36716  15.628  15.836   4.745
 3246POPE   C3B36717  15.730  16.231   5.051
 3246POPE   C4B36718  15.810  16.601   5.338
 3247POPE   NH336719   0.737  19.167   3.258
 3247POPE   PO436720   1.071  19.250   3.443
 3247POPE   GL136721   0.923  19.138   3.804
 3247POPE   GL236722   1.214  19.017   3.887
 3247POPE   C1A36723   0.766  19.310   4.255
 3247POPE   D2A36724   0.552  19.597   4.606
 3247POPE   C3A36725   0.589  19.619   5.070
 3247POPE   C4A36726   0.593  19.493   5.563
 3247POPE   C1B36727   1.226  19.293   4.143
 3247POPE   C2B36728   1.216  19.451   4.519
 3247POPE   C3B36729   1.056  19.596   4.918
 3247POPE   C4B36730   1.007  19.731   5.443
 3248POPE   NH336731  34.961  24.111   3.524
 3248POPE   PO436732  35.263  24.021   3.692
 3248POPE   GL136733  35.218  24.030   4.114
 3248POPE   GL236734  35.383  23.846   4.216
 3248POPE   C1A36735  34.965  24.278   4.463
 3248POPE   D2A36736  34.731  24.428   4.867
 3248POPE   C3A36737  34.873  24.827   5.118
 3248POPE   C4A36738  34.475  25.129   5.126
 3248POPE   C1B36739  35.336  23.953   4.569
 3248POPE   C2B36740  35.425  24.027   4.991
 3248POPE   C3B36741  35.399  24.083   5.468
 3248POPE   C4B36742  35.381  24.166   5.958
 3249POPE   NH336743  27.179  20.222   2.943
 3249POPE   PO436744  27.321  20.505   3.100
 3249POPE   GL136745  27.326  20.438   3.512
 3249POPE   GL236746  27.628  20.536   3.552
 3249POPE   C1A36747  27.119  20.587   3.966
 3249POPE   D2A36748  26.953  20.918   4.238
 3249POPE   C3A36749  26.982  20.859   4.675
 3249POPE   C4A36750  27.069  20.709   5.132
 3249POPE   C1B36751  27.647  20.467   3.908
 3249POPE   C2B36752  27.549  20.265   4.283
 3249POPE   C3B36753  27.258  19.943   4.454
 3249POPE   C4B36754  26.854  19.816   4.670
 3250POPE   NH336755  16.786  21.465   4.097
 3250POPE   PO436756  16.496  21.336   3.885
 3250POPE   GL136757  16.335  21.261   4.278
 3250POPE   GL236758  16.598  21.332   4.482
 3250POPE   C1A36759  15.999  21.186   4.517
 3250POPE   D2A36760  15.656  21.103   5.001
 3250POPE   C3A36761  15.357  21.069   5.380
 3250POPE   C4A36762  15.093  20.748   5.639
 3250POPE   C1B36763  16.428  21.372   4.819
 3250POPE   C2B36764  16.279  21.259   5.207
 3250POPE   C3B36765  16.219  21.116   5.640
 3250POPE   C4B36766  16.354  20.988   6.114
 3251POPE   NH336767  27.729  27.432   3.166
 3251POPE   PO436768  27.529  27.732   3.086
 3251POPE   GL136769  27.375  27.817   3.482
 3251POPE   GL236770  27.597  27.585   3.648
 3251POPE   C1A36771  26.998  27.685   3.656
 3251POPE   D2A36772  26.608  27.399   3.684
 3251POPE   C3A36773  26.674  27.177   4.093
 3251POPE   C4A36774  26.521  26.964   4.468
 3251POPE   C1B36775  27.712  27.520   3.963
 3251POPE   C2B36776  27.678  27.227   4.179
 3251POPE   C3B36777  27.803  27.105   4.642
 3251POPE   C4B36778  28.018  26.870   4.961
 3252POPE   NH336779  34.887  30.730   3.727
 3252POPE   PO436780  34.651  31.021   3.688
 3252POPE   GL136781  34.584  31.115   4.015
 3252POPE   GL236782  34.505  30.989   4.245
 3252POPE   C1A36783  34.415  31.402   4.291
 3252POPE   D2A36784  34.323  31.674   4.727
 3252POPE   C3A36785  34.123  32.103   4.837
 3252POPE   C4A36786  34.101  32.297   5.257
 3252POPE   C1B36787  34.606  30.974   4.604
 3252POPE   C2B36788  34.660  30.924   4.980
 3252POPE   C3B36789  34.477  30.640   5.309
 3252POPE   C4B36790  34.285  30.245   5.626
 3253POPE   NH336791  15.418  20.727   3.567
 3253POPE   PO436792  15.119  20.906   3.519
 3253POPE   GL136793  14.748  21.164   3.760
 3253POPE   GL236794  14.730  20.873   3.844
 3253POPE   C1A36795  14.700  21.569   4.069
 3253POPE   D2A36796  14.536  21.761   4.502
 3253POPE   C3A36797  14.407  21.599   4.877
 3253POPE   C4A36798  14.017  21.648   5.153
 3253POPE   C1B36799  14.667  20.652   4.182
 3253POPE   C2B36800  14.561  20.694   4.604
 3253POPE   C3B36801  14.342  20.767   4.986
 3253POPE   C4B36802  14.326  21.110   5.331
 3254POPE   NH336803  31.611  26.227   3.605
 3254POPE   PO436804  31.880  26.041   3.452
 3254POPE   GL136805  31.933  26.094   3.881
 3254POPE   GL236806  31.742  26.296   4.012
 3254POPE   C1A36807  32.140  25.788   4.172
 3254POPE   D2A36808  32.289  25.603   4.606
 3254POPE   C3A36809  32.172  25.541   5.108
 3254POPE   C4A36810  32.506  25.505   5.499
 3254POPE   C1B36811  31.644  26.262   4.348
 3254POPE   C2B36812  31.561  26.431   4.684
 3254POPE   C3B36813  31.260  26.687   4.940
 3254POPE   C4B36814  30.820  26.802   5.119
 3255POPE   NH336815  34.602  21.484   3.702
 3255POPE   PO436816  34.266  21.381   3.675
 3255POPE   GL136817  34.052  21.398   4.007
 3255POPE   GL236818  33.851  21.209   3.876
 3255POPE   C1A36819  34.209  21.163   4.400
 3255POPE   D2A36820  34.579  21.061   4.710
 3255POPE   C3A36821  34.606  21.087   5.137
 3255POPE   C4A36822  34.752  20.927   5.583
 3255POPE   C1B36823  33.863  20.946   4.125
 3255POPE   C2B36824  33.684  21.065   4.502
 3255POPE   C3B36825  33.535  20.997   4.938
 3255POPE   C4B36826  33.395  20.583   5.166
 3256POPE   NH336827   4.806  34.608   3.344
 3256POPE   PO436828   4.948  34.325   3.420
 3256POPE   GL136829   5.129  34.452   3.766
 3256POPE   GL236830   5.315  34.605   3.651
 3256POPE   C1A36831   5.202  34.446   4.170
 3256POPE   D2A36832   5.232  34.345   4.651
 3256POPE   C3A36833   5.181  34.527   5.083
 3256POPE   C4A36834   4.825  34.663   5.404
 3256POPE   C1B36835   5.332  34.861   3.902
 3256POPE   C2B36836   5.371  34.887   4.317
 3256POPE   C3B36837   5.556  34.716   4.729
 3256POPE   C4B36838   5.648  34.306   5.097
 3257POPE   NH336839  22.753  33.003   3.508
 3257POPE   PO436840  22.880  32.874   3.791
 3257POPE   GL136841  22.488  32.975   3.977
 3257POPE   GL236842  22.548  32.659   3.993
 3257POPE   C1A36843  22.512  33.240   4.308
 3257POPE   D2A36844  22.329  33.233   4.759
 3257POPE   C3A36845  21.995  33.305   5.100
 3257POPE   C4A36846  21.971  33.230   5.526
 3257POPE   C1B36847  22.699  32.664   4.342
 3257POPE   C2B36848  22.691  32.906   4.684
 3257POPE   C3B36849  22.721  33.040   5.112
 3257POPE   C4B36850  22.984  33.319   5.485
 3258POPE   NH336851  12.824   9.857   3.387
 3258POPE   PO436852  13.145   9.805   3.432
 3258POPE   GL136853  13.125   9.942   3.796
 3258POPE   GL236854  13.225   9.660   3.887
 3258POPE   C1A36855  12.924  10.011   4.127
 3258POPE   D2A36856  12.724   9.666   4.362
 3258POPE   C3A36857  12.681   9.504   4.755
 3258POPE   C4A36858  12.668   9.218   5.139
 3258POPE   C1B36859  13.107   9.443   4.096
 3258POPE   C2B36860  12.861   9.214   4.366
 3258POPE   C3B36861  12.943   9.022   4.788
 3258POPE   C4B36862  13.086   8.669   5.110
 3259POPE   NH336863  22.475   4.245   3.527
 3259POPE   PO436864  22.215   4.482   3.380
 3259POPE   GL136865  22.240   4.737   3.794
 3259POPE   GL236866  22.382   4.506   3.956
 3259POPE   C1A36867  21.853   4.947   3.853
 3259POPE   D2A36868  21.663   5.003   4.303
 3259POPE   C3A36869  21.861   5.337   4.595
 3259POPE   C4A36870  22.132   5.648   4.917
 3259POPE   C1B36871  22.336   4.373   4.289
 3259POPE   C2B36872  22.245   4.210   4.685
 3259POPE   C3B36873  21.915   4.086   5.121
 3259POPE   C4B36874  21.593   3.947   5.442
 3260POPE   NH336875  17.057  10.441   3.471
 3260POPE   PO436876  17.004  10.744   3.638
 3260POPE   GL136877  16.780  10.715   3.951
 3260POPE   GL236878  16.673  10.492   4.046
 3260POPE   C1A36879  16.766  11.120   4.188
 3260POPE   D2A36880  16.881  11.562   4.403
 3260POPE   C3A36881  16.719  11.957   4.523
 3260POPE   C4A36882  16.844  12.456   4.700
 3260POPE   C1B36883  16.593  10.616   4.405
 3260POPE   C2B36884  16.524  10.786   4.755
 3260POPE   C3B36885  16.447  10.874   5.204
 3260POPE   C4B36886  16.263  10.840   5.623
 3261POPE   NH336887  28.762   0.404   3.242
 3261POPE   PO436888  28.676   0.085   3.367
 3261POPE   GL136889  28.558   0.197   3.829
 3261POPE   GL236890  28.603   0.475   3.688
 3261POPE   C1A36891  28.728   0.052   4.206
 3261POPE   D2A36892  28.849   0.064   4.681
 3261POPE   C3A36893  28.870   0.009   5.099
 3261POPE   C4A36894  28.592  -0.022   5.495
 3261POPE   C1B36895  28.907   0.417   3.940
 3261POPE   C2B36896  29.223   0.403   4.201
 3261POPE   C3B36897  29.173   0.547   4.692
 3261POPE   C4B36898  29.079   0.492   5.195
 3262POPE   NH336899  33.212   5.941   2.952
 3262POPE   PO436900  33.011   6.079   3.129
 3262POPE   GL136901  32.974   6.004   3.473
 3262POPE   GL236902  32.739   6.252   3.634
 3262POPE   C1A36903  33.076   5.668   3.664
 3262POPE   D2A36904  33.509   5.499   3.787
 3262POPE   C3A36905  33.490   5.069   3.929
 3262POPE   C4A36906  33.832   5.046   4.252
 3262POPE   C1B36907  32.757   6.050   3.910
 3262POPE   C2B36908  32.838   5.775   4.220
 3262POPE   C3B36909  33.013   5.609   4.641
 3262POPE   C4B36910  33.061   5.237   4.963
 3263POPE   NH336911   1.220  10.575   3.517
 3263POPE   PO436912   1.334  10.265   3.715
 3263POPE   GL136913   1.285  10.126   4.139
 3263POPE   GL236914   1.313   9.870   3.975
 3263POPE   C1A36915   0.910  10.094   4.322
 3263POPE   D2A36916   0.613   9.649   4.439
 3263POPE   C3A36917   0.796   9.248   4.659
 3263POPE   C4A36918   0.658   9.229   5.152
 3263POPE   C1B36919   1.101   9.713   4.238
 3263POPE   C2B36920   1.054   9.670   4.628
 3263POPE   C3B36921   0.956   9.688   5.144
 3263POPE   C4B36922   0.668   9.854   5.554
 3264POPE   NH336923  31.704  11.850   3.323
 3264POPE   PO436924  31.571  12.089   3.533
 3264POPE   GL136925  31.482  12.437   3.799
 3264POPE   GL236926  31.849  12.401   3.857
 3264POPE   C1A36927  31.586  12.607   4.178
 3264POPE   D2A36928  31.733  12.508   4.671
 3264POPE   C3A36929  32.006  12.225   4.972
 3264POPE   C4A36930  32.456  11.966   4.905
 3264POPE   C1B36931  31.762  12.187   4.101
 3264POPE   C2B36932  31.898  11.816   4.256
 3264POPE   C3B36933  31.863  11.378   4.341
 3264POPE   C4B36934  32.102  10.901   4.274
 3265POPE   NH336935  11.715  33.146   3.178
 3265POPE   PO436936  11.782  32.814   3.249
 3265POPE   GL136937  11.417  32.790   3.429
 3265POPE   GL236938  11.343  33.084   3.391
 3265POPE   C1A36939  11.558  32.627   3.881
 3265POPE   D2A36940  11.540  32.700   4.382
 3265POPE   C3A36941  11.508  32.400   4.731
 3265POPE   C4A36942  11.374  32.360   5.220
 3265POPE   C1B36943  11.322  33.054   3.736
 3265POPE   C2B36944  11.253  33.121   4.137
 3265POPE   C3B36945  11.293  33.114   4.640
 3265POPE   C4B36946  11.001  33.083   5.066
 3266POPE   NH336947   6.945  34.676   2.613
 3266POPE   PO436948   7.059  34.530   2.916
 3266POPE   GL136949   6.796  34.618   3.125
 3266POPE   GL236950   6.547  34.691   3.100
 3266POPE   C1A36951   6.713  34.326   3.410
 3266POPE   D2A36952   6.461  34.407   3.779
 3266POPE   C3A36953   6.718  34.361   4.103
 3266POPE   C4A36954   6.905  34.380   4.533
 3266POPE   C1B36955   6.483  34.778   3.458
 3266POPE   C2B36956   6.555  34.912   3.843
 3266POPE   C3B36957   6.633  35.056   4.313
 3266POPE   C4B36958   6.627  34.744   4.703
 3267POPE   NH336959  24.137  22.692   3.252
 3267POPE   PO436960  23.953  22.400   3.243
 3267POPE   GL136961  23.992  22.570   3.714
 3267POPE   GL236962  24.323  22.481   3.651
 3267POPE   C1A36963  23.663  22.875   3.862
 3267POPE   D2A36964  23.271  22.711   4.123
 3267POPE   C3A36965  23.304  22.805   4.503
 3267POPE   C4A36966  23.438  22.709   4.947
 3267POPE   C1B36967  24.298  22.322   4.005
 3267POPE   C2B36968  24.237  22.318   4.450
 3267POPE   C3B36969  24.252  22.264   4.893
 3267POPE   C4B36970  24.602  22.253   5.242
 3268POPE   NH336971  29.817  34.462   3.230
 3268POPE   PO436972  29.713  34.129   3.289
 3268POPE   GL136973  29.583  34.260   3.751
 3268POPE   GL236974  29.556  34.000   3.816
 3268POPE   C1A36975  29.488  34.530   4.034
 3268POPE   D2A36976  29.072  34.818   3.998
 3268POPE   C3A36977  28.804  35.012   4.433
 3268POPE   C4A36978  29.002  35.471   4.627
 3268POPE   C1B36979  29.525  34.025   4.199
 3268POPE   C2B36980  29.824  33.894   4.434
 3268POPE   C3B36981  29.814  33.671   4.844
 3268POPE   C4B36982  29.732  33.187   5.058
 3269POPE   NH336983  30.802   5.875   3.371
 3269POPE   PO436984  31.083   6.049   3.462
 3269POPE   GL136985  31.471   6.006   3.646
 3269POPE   GL236986  31.291   5.720   3.723
 3269POPE   C1A36987  31.859   6.176   3.855
 3269POPE   D2A36988  31.818   6.249   4.427
 3269POPE   C3A36989  31.622   6.192   4.812
 3269POPE   C4A36990  31.822   5.996   5.199
 3269POPE   C1B36991  31.140   5.556   4.044
 3269POPE   C2B36992  31.248   5.285   4.287
 3269POPE   C3B36993  31.607   5.100   4.581
 3269POPE   C4B36994  31.657   4.823   4.933
 3270POPE   NH336995  30.058  32.908   2.987
 3270POPE   PO436996  30.133  33.243   3.086
 3270POPE   GL136997  29.761  33.297   3.354
 3270POPE   GL236998  29.914  33.030   3.444
 3270POPE   C1A36999  29.532  33.384   3.730
 3270POPE   D2A37000  29.442  33.139   4.147
 3270POPE   C3A37001  29.193  32.753   4.358
 3270POPE   C4A37002  29.294  32.395   4.654
 3270POPE   C1B37003  30.000  32.930   3.814
 3270POPE   C2B37004  30.154  33.064   4.151
 3270POPE   C3B37005  30.147  32.935   4.638
 3270POPE   C4B37006  30.111  32.768   5.071
 3271POPE   NH337007  25.740  23.473   2.736
 3271POPE   PO437008  25.709  23.322   3.080
 3271POPE   GL137009  25.812  23.256   3.462
 3271POPE   GL237010  25.640  23.036   3.479
 3271POPE   C1A37011  25.723  23.386   3.873
 3271POPE   D2A37012  25.747  23.582   4.390
 3271POPE   C3A37013  25.664  23.624   4.824
 3271POPE   C4A37014  25.773  23.873   5.316
 3271POPE   C1B37015  25.562  22.931   3.843
 3271POPE   C2B37016  25.509  22.874   4.245
 3271POPE   C3B37017  25.314  22.877   4.707
 3271POPE   C4B37018  25.379  22.800   5.198
 3272POPE   NH337019  17.032  15.304   3.251
 3272POPE   PO437020  17.169  14.974   3.237
 3272POPE   GL137021  17.136  14.849   3.617
 3272POPE   GL237022  17.465  14.885   3.752
 3272POPE   C1A37023  16.783  14.562   3.714
 3272POPE   D2A37024  16.830  14.514   4.223
 3272POPE   C3A37025  16.405  14.319   4.346
 3272POPE   C4A37026  15.967  14.414   4.086
 3272POPE   C1B37027  17.523  14.783   4.176
 3272POPE   C2B37028  17.630  14.646   4.585
 3272POPE   C3B37029  17.979  14.441   4.880
 3272POPE   C4B37030  18.369  14.085   5.024
 3273POPE   NH337031  17.805  19.552   3.800
 3273POPE   PO437032  17.624  19.254   3.785
 3273POPE   GL137033  17.350  19.081   4.125
 3273POPE   GL237034  17.536  18.832   4.147
 3273POPE   C1A37035  17.343  19.115   4.548
 3273POPE   D2A37036  17.491  19.267   5.028
 3273POPE   C3A37037  17.599  19.444   5.436
 3273POPE   C4A37038  17.722  19.691   5.903
 3273POPE   C1B37039  17.628  18.741   4.466
 3273POPE   C2B37040  17.543  18.726   4.859
 3273POPE   C3B37041  17.423  18.771   5.330
 3273POPE   C4B37042  17.229  18.400   5.483
 3274POPE   NH337043  34.335  34.704   3.165
 3274POPE   PO437044  34.692  34.693   3.044
 3274POPE   GL137045  34.896  34.906   3.372
 3274POPE   GL237046  34.680  34.764   3.556
 3274POPE   C1A37047  35.028  35.141   3.724
 3274POPE   D2A37048  35.225  35.569   3.874
 3274POPE   C3A37049  35.240  35.928   3.619
 3274POPE   C4A37050  35.064  36.402   3.505
 3274POPE   C1B37051  34.772  34.765   3.902
 3274POPE   C2B37052  34.879  34.788   4.274
 3274POPE   C3B37053  35.039  35.025   4.562
 3274POPE   C4B37054  35.272  35.290   4.872
 3275POPE   NH337055   5.329  35.492   3.143
 3275POPE   PO437056   5.207  35.544   3.459
 3275POPE   GL137057   5.182  35.888   3.583
 3275POPE   GL237058   5.041  35.791   3.786
 3275POPE   C1A37059   5.019  36.285   3.567
 3275POPE   D2A37060   5.113  36.758   3.654
 3275POPE   C3A37061   5.090  36.965   4.008
 3275POPE   C4A37062   5.033  37.080   4.523
 3275POPE   C1B37063   5.018  36.108   4.002
 3275POPE   C2B37064   5.056  36.475   4.145
 3275POPE   C3B37065   5.118  36.567   4.593
 3275POPE   C4B37066   5.223  36.678   5.079
 3276POPE   NH337067  18.407  26.368   3.959
 3276POPE   PO437068  18.170  26.128   3.838
 3276POPE   GL137069  18.217  25.784   4.057
 3276POPE   GL237070  18.511  25.756   4.190
 3276POPE   C1A37071  18.018  25.575   4.397
 3276POPE   D2A37072  17.723  25.457   4.794
 3276POPE   C3A37073  17.757  25.235   5.211
 3276POPE   C4A37074  17.983  24.825   5.390
 3276POPE   C1B37075  18.471  25.714   4.614
 3276POPE   C2B37076  18.249  25.824   4.963
 3276POPE   C3B37077  17.992  25.998   5.412
 3276POPE   C4B37078  17.563  26.070   5.618
 3277POPE   NH337079   7.627   6.395   3.278
 3277POPE   PO437080   7.347   6.396   3.489
 3277POPE   GL137081   7.409   6.253   3.870
 3277POPE   GL237082   7.702   6.273   3.809
 3277POPE   C1A37083   7.217   6.286   4.305
 3277POPE   D2A37084   7.161   6.362   4.786
 3277POPE   C3A37085   7.359   6.160   5.114
 3277POPE   C4A37086   7.579   6.345   5.490
 3277POPE   C1B37087   7.982   6.169   4.013
 3277POPE   C2B37088   8.214   6.254   4.334
 3277POPE   C3B37089   8.338   6.226   4.779
 3277POPE   C4B37090   8.826   6.194   4.936
 3278POPE   NH337091  29.319  23.620   3.518
 3278POPE   PO437092  29.140  23.862   3.685
 3278POPE   GL137093  29.159  24.198   3.916
 3278POPE   GL237094  29.354  24.352   3.849
 3278POPE   C1A37095  28.991  24.249   4.293
 3278POPE   D2A37096  28.766  24.372   4.717
 3278POPE   C3A37097  29.160  24.448   5.001
 3278POPE   C4A37098  29.498  24.437   4.746
 3278POPE   C1B37099  29.642  24.391   4.088
 3278POPE   C2B37100  29.911  24.323   4.409
 3278POPE   C3B37101  30.264  24.238   4.771
 3278POPE   C4B37102  30.134  24.245   5.192
 3279POPE   NH337103   6.006  15.393   3.767
 3279POPE   PO437104   6.186  15.109   3.614
 3279POPE   GL137105   6.352  15.046   3.992
 3279POPE   GL237106   6.654  15.087   3.894
 3279POPE   C1A37107   6.321  14.924   4.376
 3279POPE   D2A37108   6.320  14.633   4.749
 3279POPE   C3A37109   6.436  14.246   4.958
 3279POPE   C4A37110   6.038  14.124   4.751
 3279POPE   C1B37111   6.871  14.948   4.203
 3279POPE   C2B37112   6.777  14.833   4.618
 3279POPE   C3B37113   6.796  14.607   5.050
 3279POPE   C4B37114   6.865  14.165   5.303
 3280POPE   NH337115  35.597   1.192   3.304
 3280POPE   PO437116  35.377   1.471   3.359
 3280POPE   GL137117  35.584   1.549   3.650
 3280POPE   GL237118  35.622   1.236   3.766
 3280POPE   C1A37119  35.575   1.683   4.037
 3280POPE   D2A37120  35.464   1.420   4.450
 3280POPE   C3A37121  35.428   1.584   4.890
 3280POPE   C4A37122  35.610   1.747   5.287
 3280POPE   C1B37123  35.751   1.088   4.089
 3280POPE   C2B37124  35.725   1.009   4.445
 3280POPE   C3B37125  35.395   1.101   4.849
 3280POPE   C4B37126  35.169   1.043   5.314
 3281POPE   NH337127   5.534  11.612   3.373
 3281POPE   PO437128   5.201  11.764   3.472
 3281POPE   GL137129   5.310  11.982   3.811
 3281POPE   GL237130   5.575  11.882   3.810
 3281POPE   C1A37131   5.139  11.931   4.272
 3281POPE   D2A37132   5.069  11.985   4.742
 3281POPE   C3A37133   5.382  12.018   5.049
 3281POPE   C4A37134   5.348  11.939   5.570
 3281POPE   C1B37135   5.588  11.661   4.135
 3281POPE   C2B37136   5.818  11.467   4.471
 3281POPE   C3B37137   5.941  11.311   4.884
 3281POPE   C4B37138   6.030  11.482   5.361
 3282POPE   NH337139  22.255   8.359   3.499
 3282POPE   PO437140  21.972   8.166   3.491
 3282POPE   GL137141  21.800   7.985   3.880
 3282POPE   GL237142  22.158   8.008   3.899
 3282POPE   C1A37143  21.867   7.559   4.049
 3282POPE   D2A37144  21.439   7.329   4.064
 3282POPE   C3A37145  21.043   7.123   4.262
 3282POPE   C4A37146  21.091   6.736   4.603
 3282POPE   C1B37147  22.165   7.862   4.226
 3282POPE   C2B37148  22.171   7.611   4.559
 3282POPE   C3B37149  22.344   7.295   4.872
 3282POPE   C4B37150  22.430   6.980   5.215
 3283POPE   NH337151  30.998  33.229   3.153
 3283POPE   PO437152  31.146  32.930   3.293
 3283POPE   GL137153  31.286  32.866   3.619
 3283POPE   GL237154  31.586  32.784   3.579
 3283POPE   C1A37155  31.143  32.666   3.988
 3283POPE   D2A37156  31.050  32.796   4.444
 3283POPE   C3A37157  31.163  33.265   4.359
 3283POPE   C4A37158  31.163  33.238   3.910
 3283POPE   C1B37159  31.564  32.720   3.933
 3283POPE   C2B37160  31.593  32.749   4.384
 3283POPE   C3B37161  31.689  32.806   4.848
 3283POPE   C4B37162  31.694  32.943   5.317
 3284POPE   NH337163  32.248  35.296   3.020
 3284POPE   PO437164  32.358  35.603   2.993
 3284POPE   GL137165  32.206  35.770   3.352
 3284POPE   GL237166  32.381  35.556   3.514
 3284POPE   C1A37167  32.151  36.163   3.598
 3284POPE   D2A37168  32.059  36.039   4.050
 3284POPE   C3A37169  32.037  36.082   4.524
 3284POPE   C4A37170  32.179  36.011   5.013
 3284POPE   C1B37171  32.407  35.787   3.800
 3284POPE   C2B37172  32.660  35.867   4.147
 3284POPE   C3B37173  32.516  36.020   4.628
 3284POPE   C4B37174  32.645  36.033   5.080
 3285POPE   NH337175  15.657  28.878   3.103
 3285POPE   PO437176  15.342  28.694   3.172
 3285POPE   GL137177  15.362  28.474   3.580
 3285POPE   GL237178  15.362  28.783   3.734
 3285POPE   C1A37179  15.738  28.255   3.801
 3285POPE   D2A37180  16.004  28.295   4.238
 3285POPE   C3A37181  15.846  28.138   4.638
 3285POPE   C4A37182  15.800  28.164   5.084
 3285POPE   C1B37183  15.360  28.670   4.059
 3285POPE   C2B37184  15.526  28.450   4.372
 3285POPE   C3B37185  15.486  28.519   4.820
 3285POPE   C4B37186  15.229  28.220   5.135
 3286POPE   NH337187  14.458  15.547   3.400
 3286POPE   PO437188  14.293  15.347   3.631
 3286POPE   GL137189  14.265  15.420   4.047
 3286POPE   GL237190  14.190  15.147   4.062
 3286POPE   C1A37191  13.967  15.516   4.365
 3286POPE   D2A37192  13.778  15.519   4.879
 3286POPE   C3A37193  13.740  15.434   5.330
 3286POPE   C4A37194  13.771  15.566   5.844
 3286POPE   C1B37195  14.062  15.070   4.402
 3286POPE   C2B37196  14.002  15.053   4.789
 3286POPE   C3B37197  14.133  15.100   5.239
 3286POPE   C4B37198  14.115  15.227   5.732
 3287POPE   NH337199   4.487  31.040   3.216
 3287POPE   PO437200   4.639  31.281   3.431
 3287POPE   GL137201   4.674  31.317   3.878
 3287POPE   GL237202   4.700  31.623   3.847
 3287POPE   C1A37203   4.921  30.901   4.002
 3287POPE   D2A37204   4.977  30.867   4.513
 3287POPE   C3A37205   4.645  30.693   4.735
 3287POPE   C4A37206   4.949  30.842   5.059
 3287POPE   C1B37207   4.766  31.732   4.242
 3287POPE   C2B37208   4.731  31.701   4.635
 3287POPE   C3B37209   4.804  32.085   4.919
 3287POPE   C4B37210   4.546  32.145   5.382
 3288POPE   NH337211  25.656   4.683   3.527
 3288POPE   PO437212  25.746   4.369   3.631
 3288POPE   GL137213  25.420   4.249   3.877
 3288POPE   GL237214  25.259   4.400   3.700
 3288POPE   C1A37215  25.498   4.345   4.303
 3288POPE   D2A37216  25.151   4.633   4.116
 3288POPE   C3A37217  25.266   5.096   4.139
 3288POPE   C4A37218  24.891   5.287   4.087
 3288POPE   C1B37219  24.891   4.444   3.719
 3288POPE   C2B37220  24.692   4.444   4.085
 3288POPE   C3B37221  24.452   4.451   4.584
 3288POPE   C4B37222  24.362   4.464   5.036
 3289POPE   NH337223  33.244   3.293   2.948
 3289POPE   PO437224  33.017   3.163   3.179
 3289POPE   GL137225  32.886   3.342   3.488
 3289POPE   GL237226  32.666   3.201   3.500
 3289POPE   C1A37227  32.971   3.530   3.886
 3289POPE   D2A37228  33.111   3.765   4.325
 3289POPE   C3A37229  33.226   3.745   4.788
 3289POPE   C4A37230  33.381   3.652   5.260
 3289POPE   C1B37231  32.597   3.041   3.850
 3289POPE   C2B37232  32.757   2.661   4.091
 3289POPE   C3B37233  33.002   2.380   4.330
 3289POPE   C4B37234  33.047   2.267   4.837
 3290POPE   NH337235   3.327  30.153   3.376
 3290POPE   PO437236   3.515  30.434   3.258
 3290POPE   GL137237   3.496  30.576   3.662
 3290POPE   GL237238   3.273  30.447   3.843
 3290POPE   C1A37239   3.368  30.934   3.938
 3290POPE   D2A37240   3.176  31.023   4.386
 3290POPE   C3A37241   3.211  31.041   4.947
 3290POPE   C4A37242   3.175  30.852   5.432
 3290POPE   C1B37243   3.225  30.540   4.183
 3290POPE   C2B37244   3.113  30.582   4.605
 3290POPE   C3B37245   3.022  30.487   5.005
 3290POPE   C4B37246   2.735  30.472   5.392
 3291POPE   NH337247  25.586   2.092   3.353
 3291POPE   PO437248  25.899   2.132   3.458
 3291POPE   GL137249  25.793   2.390   3.849
 3291POPE   GL237250  25.512   2.222   3.864
 3291POPE   C1A37251  26.116   2.479   4.094
 3291POPE   D2A37252  26.499   2.538   4.386
 3291POPE   C3A37253  26.562   2.476   4.819
 3291POPE   C4A37254  26.638   2.317   5.302
 3291POPE   C1B37255  25.426   1.975   4.116
 3291POPE   C2B37256  25.473   1.947   4.494
 3291POPE   C3B37257  25.758   2.118   4.905
 3291POPE   C4B37258  26.149   2.342   5.182
 3292POPE   NH337259   6.355  27.004   3.046
 3292POPE   PO437260   6.074  27.121   3.253
 3292POPE   GL137261   5.928  27.015   3.634
 3292POPE   GL237262   6.111  27.187   3.719
 3292POPE   C1A37263   5.927  26.748   4.015
 3292POPE   D2A37264   6.302  26.687   4.319
 3292POPE   C3A37265   6.349  27.106   4.420
 3292POPE   C4A37266   6.336  27.435   4.829
 3292POPE   C1B37267   6.083  27.253   4.068
 3292POPE   C2B37268   5.984  27.499   4.425
 3292POPE   C3B37269   5.820  27.603   4.899
 3292POPE   C4B37270   5.707  28.045   4.954
 3293POPE   NH337271   0.804  21.925   3.510
 3293POPE   PO437272   0.963  22.297   3.519
 3293POPE   GL137273   1.039  22.304   3.911
 3293POPE   GL237274   1.099  21.986   3.925
 3293POPE   C1A37275   1.253  22.538   4.178
 3293POPE   D2A37276   1.329  22.622   4.678
 3293POPE   C3A37277   1.397  22.485   5.114
 3293POPE   C4A37278   1.354  22.106   5.440
 3293POPE   C1B37279   1.140  22.029   4.253
 3293POPE   C2B37280   1.030  22.089   4.642
 3293POPE   C3B37281   1.164  21.892   5.079
 3293POPE   C4B37282   0.862  21.937   5.378
 3294POPE   NH337283  18.570  26.438   3.496
 3294POPE   PO437284  18.760  26.627   3.751
 3294POPE   GL137285  18.766  26.704   4.136
 3294POPE   GL237286  18.711  26.491   4.252
 3294POPE   C1A37287  18.697  27.020   4.386
 3294POPE   D2A37288  18.266  27.033   4.748
 3294POPE   C3A37289  18.326  26.792   5.160
 3294POPE   C4A37290  18.639  26.530   5.394
 3294POPE   C1B37291  18.808  26.402   4.603
 3294POPE   C2B37292  18.653  26.179   4.951
 3294POPE   C3B37293  18.474  26.066   5.356
 3294POPE   C4B37294  18.201  26.399   5.599
 3295POPE   NH337295   4.411  32.914   3.415
 3295POPE   PO437296   4.344  32.678   3.680
 3295POPE   GL137297   4.283  32.715   4.079
 3295POPE   GL237298   4.232  32.489   4.199
 3295POPE   C1A37299   4.534  32.926   4.310
 3295POPE   D2A37300   5.047  32.758   4.289
 3295POPE   C3A37301   5.519  32.843   4.159
 3295POPE   C4A37302   5.846  32.584   3.889
 3295POPE   C1B37303   4.273  32.513   4.571
 3295POPE   C2B37304   4.403  32.595   5.011
 3295POPE   C3B37305   4.709  32.730   5.327
 3295POPE   C4B37306   4.944  33.062   5.563
 3296POPE   NH337307  26.763   9.709   3.528
 3296POPE   PO437308  26.988   9.667   3.257
 3296POPE   GL137309  27.258   9.498   3.563
 3296POPE   GL237310  27.138   9.694   3.769
 3296POPE   C1A37311  27.577   9.388   3.797
 3296POPE   D2A37312  27.600   9.311   4.220
 3296POPE   C3A37313  27.544   9.257   4.644
 3296POPE   C4A37314  27.538   9.298   5.146
 3296POPE   C1B37315  27.036   9.594   4.087
 3296POPE   C2B37316  27.069   9.432   4.487
 3296POPE   C3B37317  27.137   9.350   4.947
 3296POPE   C4B37318  27.144   9.158   5.454
 3297POPE   NH337319  24.372   0.444   3.340
 3297POPE   PO437320  24.031   0.502   3.342
 3297POPE   GL137321  24.009   0.204   3.631
 3297POPE   GL237322  24.284   0.295   3.834
 3297POPE   C1A37323  23.790  -0.063   3.934
 3297POPE   D2A37324  23.553  -0.085   4.370
 3297POPE   C3A37325  23.347  -0.419   4.654
 3297POPE   C4A37326  23.200  -0.813   4.967
 3297POPE   C1B37327  24.333   0.106   4.194
 3297POPE   C2B37328  24.133  -0.115   4.464
 3297POPE   C3B37329  24.259  -0.307   4.894
 3297POPE   C4B37330  24.655  -0.452   5.193
 3298POPE   NH337331  13.236  32.185   3.980
 3298POPE   PO437332  13.570  32.145   3.935
 3298POPE   GL137333  13.523  32.019   4.325
 3298POPE   GL237334  13.826  31.979   4.317
 3298POPE   C1A37335  13.196  32.330   4.488
 3298POPE   D2A37336  12.798  32.623   4.594
 3298POPE   C3A37337  12.429  32.483   4.816
 3298POPE   C4A37338  12.009  32.267   5.021
 3298POPE   C1B37339  13.868  31.907   4.657
 3298POPE   C2B37340  13.884  31.961   5.067
 3298POPE   C3B37341  13.625  32.351   5.153
 3298POPE   C4B37342  13.281  32.634   5.354
 3299POPE   NH337343   4.618  35.124   3.126
 3299POPE   PO437344   4.951  35.090   3.188
 3299POPE   GL137345   4.951  34.982   3.612
 3299POPE   GL237346   4.634  35.017   3.623
 3299POPE   C1A37347   4.876  34.897   4.026
 3299POPE   D2A37348   4.774  34.691   4.450
 3299POPE   C3A37349   4.726  34.668   4.903
 3299POPE   C4A37350   4.432  34.523   5.139
 3299POPE   C1B37351   4.478  34.714   3.817
 3299POPE   C2B37352   4.380  34.582   4.149
 3299POPE   C3B37353   4.147  34.220   4.467
 3299POPE   C4B37354   3.924  34.253   4.848
 3300POPE   NH337355  33.042  11.115   3.190
 3300POPE   PO437356  33.019  11.426   3.351
 3300POPE   GL137357  33.086  11.321   3.843
 3300POPE   GL237358  32.822  11.392   3.905
 3300POPE   C1A37359  33.327  11.216   4.213
 3300POPE   D2A37360  33.452  11.338   4.679
 3300POPE   C3A37361  33.229  11.488   5.028
 3300POPE   C4A37362  32.995  11.278   5.330
 3300POPE   C1B37363  32.887  11.272   4.236
 3300POPE   C2B37364  33.039  11.057   4.577
 3300POPE   C3B37365  33.304  10.903   4.911
 3300POPE   C4B37366  33.518  10.752   5.358
 3301POPE   NH337367  13.419  10.242   3.572
 3301POPE   PO437368  13.355  10.563   3.631
 3301POPE   GL137369  13.309  10.550   4.019
 3301POPE   GL237370  13.306  10.266   4.048
 3301POPE   C1A37371  13.400  10.719   4.406
 3301POPE   D2A37372  13.376  11.119   4.760
 3301POPE   C3A37373  13.662  11.388   5.022
 3301POPE   C4A37374  13.783  11.135   5.447
 3301POPE   C1B37375  13.191  10.276   4.363
 3301POPE   C2B37376  12.915  10.392   4.706
 3301POPE   C3B37377  12.675  10.464   5.096
 3301POPE   C4B37378  12.244  10.446   5.306
 3302POPE   NH337379  11.274  13.776   3.124
 3302POPE   PO437380  11.620  13.646   3.173
 3302POPE   GL137381  11.660  13.665   3.522
 3302POPE   GL237382  11.541  13.952   3.592
 3302POPE   C1A37383  11.940  13.688   3.815
 3302POPE   D2A37384  12.028  13.442   4.292
 3302POPE   C3A37385  12.102  13.663   4.777
 3302POPE   C4A37386  12.420  13.900   5.060
 3302POPE   C1B37387  11.575  13.977   3.995
 3302POPE   C2B37388  11.836  13.938   4.325
 3302POPE   C3B37389  12.134  14.134   4.648
 3302POPE   C4B37390  12.231  14.422   4.959
 3303POPE   NH337391  25.339  34.986   3.617
 3303POPE   PO437392  25.102  35.225   3.485
 3303POPE   GL137393  24.855  35.135   3.707
 3303POPE   GL237394  24.846  34.871   3.796
 3303POPE   C1A37395  24.720  35.274   4.068
 3303POPE   D2A37396  24.780  35.413   4.490
 3303POPE   C3A37397  24.766  35.197   4.853
 3303POPE   C4A37398  24.826  35.094   5.347
 3303POPE   C1B37399  24.556  34.800   4.022
 3303POPE   C2B37400  24.532  34.883   4.394
 3303POPE   C3B37401  24.399  34.762   4.851
 3303POPE   C4B37402  24.384  34.778   5.360
 3304POPE   NH337403  12.229  22.305   3.004
 3304POPE   PO437404  12.064  21.950   3.071
 3304POPE   GL137405  11.962  21.877   3.471
 3304POPE   GL237406  12.122  22.012   3.583
 3304POPE   C1A37407  11.618  21.912   3.681
 3304POPE   D2A37408  11.264  22.046   4.092
 3304POPE   C3A37409  11.315  22.280   4.542
 3304POPE   C4A37410  11.432  22.785   4.623
 3304POPE   C1B37411  11.948  22.180   3.866
 3304POPE   C2B37412  11.714  22.140   4.187
 3304POPE   C3B37413  11.740  21.969   4.678
 3304POPE   C4B37414  11.586  21.574   4.928
 3305POPE   NH337415   6.242   0.851   3.252
 3305POPE   PO437416   5.945   1.044   3.278
 3305POPE   GL137417   6.066   1.205   3.598
 3305POPE   GL237418   5.859   1.189   3.738
 3305POPE   C1A37419   6.387   1.141   3.759
 3305POPE   D2A37420   6.815   0.977   3.882
 3305POPE   C3A37421   6.896   0.985   4.315
 3305POPE   C4A37422   6.785   0.833   4.791
 3305POPE   C1B37423   5.895   1.137   4.089
 3305POPE   C2B37424   5.977   1.063   4.466
 3305POPE   C3B37425   5.944   1.129   4.896
 3305POPE   C4B37426   5.969   1.264   5.391
 3306POPE   NH337427  12.180  24.147   3.177
 3306POPE   PO437428  12.151  23.824   3.095
 3306POPE   GL137429  11.961  23.656   3.432
 3306POPE   GL237430  12.199  23.860   3.576
 3306POPE   C1A37431  11.575  23.609   3.616
 3306POPE   D2A37432  11.453  23.694   4.098
 3306POPE   C3A37433  11.621  23.852   4.491
 3306POPE   C4A37434  11.572  23.935   5.016
 3306POPE   C1B37435  12.471  23.786   3.823
 3306POPE   C2B37436  12.695  23.800   4.165
 3306POPE   C3B37437  12.982  23.840   4.552
 3306POPE   C4B37438  13.140  23.799   5.014
 3307POPE   NH337439   8.182  12.776   3.134
 3307POPE   PO437440   8.402  12.626   3.232
 3307POPE   GL137441   8.477  12.753   3.650
 3307POPE   GL237442   8.192  12.854   3.640
 3307POPE   C1A37443   8.513  12.446   3.942
 3307POPE   D2A37444   8.789  12.187   4.241
 3307POPE   C3A37445   8.518  11.883   4.561
 3307POPE   C4A37446   8.170  11.512   4.651
 3307POPE   C1B37447   8.092  12.731   3.953
 3307POPE   C2B37448   8.161  12.583   4.359
 3307POPE   C3B37449   8.206  12.628   4.841
 3307POPE   C4B37450   8.297  12.751   5.336
 3308POPE   NH337451  28.764  14.702   3.229
 3308POPE   PO437452  29.032  14.500   3.437
 3308POPE   GL137453  28.999  14.344   3.809
 3308POPE   GL237454  28.715  14.393   3.797
 3308POPE   C1A37455  29.104  14.424   4.197
 3308POPE   D2A37456  29.104  14.746   4.535
 3308POPE   C3A37457  29.382  14.729   4.962
 3308POPE   C4A37458  29.624  14.892   5.334
 3308POPE   C1B37459  28.605  14.401   4.155
 3308POPE   C2B37460  28.682  14.456   4.520
 3308POPE   C3B37461  28.508  14.555   4.918
 3308POPE   C4B37462  28.335  14.593   5.436
 3309POPE   NH337463  12.182  20.146   3.230
 3309POPE   PO437464  12.213  19.894   3.420
 3309POPE   GL137465  12.096  19.830   3.781
 3309POPE   GL237466  11.890  20.076   3.661
 3309POPE   C1A37467  12.032  19.523   4.128
 3309POPE   D2A37468  12.366  19.268   4.329
 3309POPE   C3A37469  12.602  18.933   4.348
 3309POPE   C4A37470  12.669  18.507   4.629
 3309POPE   C1B37471  11.763  20.173   4.048
 3309POPE   C2B37472  11.629  20.383   4.362
 3309POPE   C3B37473  11.520  20.430   4.895
 3309POPE   C4B37474  11.669  20.314   5.318
 3310POPE   NH337475  14.186   9.108   3.305
 3310POPE   PO437476  14.459   9.366   3.366
 3310POPE   GL137477  14.625   9.361   3.832
 3310POPE   GL237478  14.354   9.467   3.837
 3310POPE   C1A37479  14.556   9.099   4.292
 3310POPE   D2A37480  14.508   8.703   4.595
 3310POPE   C3A37481  14.494   8.794   5.103
 3310POPE   C4A37482  14.852   8.975   5.385
 3310POPE   C1B37483  14.087   9.566   4.021
 3310POPE   C2B37484  13.908   9.693   4.356
 3310POPE   C3B37485  13.645   9.873   4.727
 3310POPE   C4B37486  13.547  10.269   4.965
 3311POPE   NH337487  17.904   3.007   3.858
 3311POPE   PO437488  17.890   3.356   3.749
 3311POPE   GL137489  17.999   3.441   4.067
 3311POPE   GL237490  17.818   3.604   4.237
 3311POPE   C1A37491  18.192   3.102   4.304
 3311POPE   D2A37492  18.092   2.569   4.384
 3311POPE   C3A37493  18.079   2.371   4.830
 3311POPE   C4A37494  17.988   2.298   5.316
 3311POPE   C1B37495  17.901   3.458   4.536
 3311POPE   C2B37496  17.741   3.351   4.921
 3311POPE   C3B37497  17.436   3.394   5.329
 3311POPE   C4B37498  17.100   3.145   5.613
 3312POPE   NH337499   1.034   8.301   3.125
 3312POPE   PO437500   1.019   8.509   3.386
 3312POPE   GL137501   1.249   8.378   3.716
 3312POPE   GL237502   1.071   8.151   3.603
 3312POPE   C1A37503   1.311   8.192   4.154
 3312POPE   D2A37504   1.077   8.215   4.588
 3312POPE   C3A37505   1.110   8.229   5.064
 3312POPE   C4A37506   0.868   8.107   5.440
 3312POPE   C1B37507   0.882   7.998   3.921
 3312POPE   C2B37508   0.702   7.920   4.283
 3312POPE   C3B37509   0.378   7.735   4.579
 3312POPE   C4B37510   0.124   7.634   4.907
 3313POPE   NH337511  19.745  14.272   3.381
 3313POPE   PO437512  19.554  14.563   3.378
 3313POPE   GL137513  19.640  14.751   3.751
 3313POPE   GL237514  19.836  14.497   3.742
 3313POPE   C1A37515  19.658  14.755   4.159
 3313POPE   D2A37516  19.568  14.791   4.645
 3313POPE   C3A37517  19.755  15.074   4.933
 3313POPE   C4A37518  19.965  15.304   5.261
 3313POPE   C1B37519  19.999  14.473   4.046
 3313POPE   C2B37520  19.987  14.423   4.469
 3313POPE   C3B37521  20.172  14.567   4.856
 3313POPE   C4B37522  20.585  14.651   5.145
 3314POPE   NH337523   5.640   1.421   3.303
 3314POPE   PO437524   5.740   1.670   3.497
 3314POPE   GL137525   5.801   1.586   3.931
 3314POPE   GL237526   6.157   1.562   3.953
 3314POPE   C1A37527   5.491   1.317   4.186
 3314POPE   D2A37528   5.560   1.340   4.654
 3314POPE   C3A37529   5.868   1.650   4.715
 3314POPE   C4A37530   5.736   1.859   5.172
 3314POPE   C1B37531   6.292   1.334   4.240
 3314POPE   C2B37532   6.458   1.238   4.601
 3314POPE   C3B37533   6.514   1.182   5.049
 3314POPE   C4B37534   6.417   1.163   5.510
 3315POPE   NH337535   7.047  28.781   3.231
 3315POPE   PO437536   7.351  28.875   3.125
 3315POPE   GL137537   7.382  28.996   3.552
 3315POPE   GL237538   7.448  28.641   3.622
 3315POPE   C1A37539   7.234  29.227   3.920
 3315POPE   D2A37540   7.344  29.355   4.423
 3315POPE   C3A37541   7.716  29.591   4.593
 3315POPE   C4A37542   8.060  29.878   4.826
 3315POPE   C1B37543   7.416  28.744   3.994
 3315POPE   C2B37544   7.419  28.755   4.484
 3315POPE   C3B37545   7.159  28.646   4.871
 3315POPE   C4B37546   6.871  28.590   5.253
 3316POPE   NH337547  33.170   0.671   3.434
 3316POPE   PO437548  33.127   0.351   3.495
 3316POPE   GL137549  33.022   0.400   3.875
 3316POPE   GL237550  33.214   0.598   3.990
 3316POPE   C1A37551  32.869   0.261   4.309
 3316POPE   D2A37552  32.916   0.289   4.803
 3316POPE   C3A37553  33.111   0.388   5.234
 3316POPE   C4A37554  33.084   0.576   5.677
 3316POPE   C1B37555  33.253   0.591   4.376
 3316POPE   C2B37556  33.324   0.582   4.778
 3316POPE   C3B37557  33.539   0.702   5.212
 3316POPE   C4B37558  33.812   0.569   5.572
 3317POPE   NH337559  27.597  35.369   3.491
 3317POPE   PO437560  27.949  35.380   3.414
 3317POPE   GL137561  28.263  35.240   3.740
 3317POPE   GL237562  28.174  35.003   3.619
 3317POPE   C1A37563  28.299  35.171   4.196
 3317POPE   D2A37564  28.084  35.099   4.612
 3317POPE   C3A37565  28.415  35.179   4.876
 3317POPE   C4A37566  28.365  35.237   5.379
 3317POPE   C1B37567  28.279  34.796   3.926
 3317POPE   C2B37568  28.361  34.722   4.313
 3317POPE   C3B37569  28.477  34.695   4.762
 3317POPE   C4B37570  28.663  34.770   5.216
 3318POPE   NH337571  17.567  15.815   3.374
 3318POPE   PO437572  17.264  15.759   3.385
 3318POPE   GL137573  17.364  15.917   3.840
 3318POPE   GL237574  17.369  15.595   3.830
 3318POPE   C1A37575  17.622  16.009   4.168
 3318POPE   D2A37576  17.665  15.830   4.642
 3318POPE   C3A37577  17.218  15.903   4.865
 3318POPE   C4A37578  17.032  16.025   5.265
 3318POPE   C1B37579  17.571  15.552   4.149
 3318POPE   C2B37580  17.632  15.320   4.455
 3318POPE   C3B37581  17.652  15.112   4.825
 3318POPE   C4B37582  17.905  14.955   5.309
 3319POPE   NH337583   9.109  10.956   2.967
 3319POPE   PO437584   8.940  11.255   3.021
 3319POPE   GL137585   8.930  11.266   3.382
 3319POPE   GL237586   9.115  11.553   3.452
 3319POPE   C1A37587   8.972  10.927   3.658
 3319POPE   D2A37588   9.123  10.519   3.917
 3319POPE   C3A37589   9.121  10.148   4.192
 3319POPE   C4A37590   9.236   9.874   4.627
 3319POPE   C1B37591   9.252  11.491   3.806
 3319POPE   C2B37592   9.360  11.426   4.186
 3319POPE   C3B37593   9.280  11.280   4.610
 3319POPE   C4B37594   9.261  10.991   4.995
 3320POPE   NH337595   9.509  13.705   3.378
 3320POPE   PO437596   9.692  13.878   3.612
 3320POPE   GL137597   9.584  13.732   3.993
 3320POPE   GL237598   9.453  13.435   3.883
 3320POPE   C1A37599   9.700  13.724   4.405
 3320POPE   D2A37600   9.844  13.960   4.841
 3320POPE   C3A37601   9.507  14.040   5.168
 3320POPE   C4A37602   9.111  14.069   5.527
 3320POPE   C1B37603   9.553  13.293   4.204
 3320POPE   C2B37604   9.515  13.210   4.551
 3320POPE   C3B37605   9.404  13.510   4.946
 3320POPE   C4B37606   9.086  13.629   5.350
 3321POPE   NH337607  13.855  23.264   3.367
 3321POPE   PO437608  13.508  23.374   3.337
 3321POPE   GL137609  13.406  23.477   3.729
 3321POPE   GL237610  13.664  23.490   3.850
 3321POPE   C1A37611  13.107  23.235   3.986
 3321POPE   D2A37612  13.155  23.381   4.437
 3321POPE   C3A37613  13.130  23.053   4.795
 3321POPE   C4A37614  12.836  22.635   4.825
 3321POPE   C1B37615  13.575  23.402   4.226
 3321POPE   C2B37616  13.604  23.351   4.653
 3321POPE   C3B37617  13.575  23.144   5.067
 3321POPE   C4B37618  13.744  23.475   5.325
 3322POPE   NH337619  12.165   2.809   2.906
 3322POPE   PO437620  12.126   3.136   2.906
 3322POPE   GL137621  12.188   3.214   3.378
 3322POPE   GL237622  12.035   2.897   3.393
 3322POPE   C1A37623  12.434   3.143   3.749
 3322POPE   D2A37624  12.444   3.352   4.195
 3322POPE   C3A37625  12.278   3.268   4.680
 3322POPE   C4A37626  12.343   3.085   5.147
 3322POPE   C1B37627  12.080   2.815   3.774
 3322POPE   C2B37628  12.250   2.827   4.179
 3322POPE   C3B37629  12.250   2.726   4.642
 3322POPE   C4B37630  12.424   2.537   5.082
 3323POPE   NH337631  22.104  26.183   3.680
 3323POPE   PO437632  21.892  25.971   3.847
 3323POPE   GL137633  22.012  26.136   4.189
 3323POPE   GL237634  21.795  25.826   4.221
 3323POPE   C1A37635  22.016  26.406   4.584
 3323POPE   D2A37636  22.249  26.832   4.847
 3323POPE   C3A37637  22.640  26.806   4.676
 3323POPE   C4A37638  22.865  26.968   4.235
 3323POPE   C1B37639  21.729  25.805   4.573
 3323POPE   C2B37640  21.580  25.737   4.959
 3323POPE   C3B37641  21.738  25.540   5.330
 3323POPE   C4B37642  21.955  25.300   5.681
 3324POPE   NH337643  15.186   3.208   2.780
 3324POPE   PO437644  15.038   3.425   3.049
 3324POPE   GL137645  14.946   3.238   3.421
 3324POPE   GL237646  14.762   3.498   3.400
 3324POPE   C1A37647  14.882   3.051   3.816
 3324POPE   D2A37648  14.837   2.586   3.914
 3324POPE   C3A37649  15.014   2.273   4.199
 3324POPE   C4A37650  14.951   1.991   4.663
 3324POPE   C1B37651  14.675   3.628   3.785
 3324POPE   C2B37652  14.509   3.332   3.997
 3324POPE   C3B37653  14.644   3.022   4.314
 3324POPE   C4B37654  14.526   2.714   4.674
 3325POPE   NH337655   4.954   6.395   3.299
 3325POPE   PO437656   4.701   6.577   3.345
 3325POPE   GL137657   4.605   6.462   3.773
 3325POPE   GL237658   4.828   6.448   3.852
 3325POPE   C1A37659   4.384   6.210   4.009
 3325POPE   D2A37660   4.365   5.930   4.441
 3325POPE   C3A37661   4.624   5.720   4.741
 3325POPE   C4A37662   4.875   5.621   5.123
 3325POPE   C1B37663   4.843   6.238   4.160
 3325POPE   C2B37664   4.805   6.142   4.526
 3325POPE   C3B37665   4.646   6.238   4.975
 3325POPE   C4B37666   4.451   6.573   5.369
 3326POPE   NH337667  18.785   0.699   3.434
 3326POPE   PO437668  18.460   0.687   3.572
 3326POPE   GL137669  18.321   0.899   3.930
 3326POPE   GL237670  18.084   0.707   3.932
 3326POPE   C1A37671  18.143   1.139   4.324
 3326POPE   D2A37672  18.030   1.055   4.742
 3326POPE   C3A37673  18.086   0.772   5.070
 3326POPE   C4A37674  18.087   0.391   5.412
 3326POPE   C1B37675  17.899   0.655   4.233
 3326POPE   C2B37676  17.929   0.577   4.629
 3326POPE   C3B37677  17.748   0.442   5.061
 3326POPE   C4B37678  17.413   0.119   5.254
 3327POPE   NH337679  24.331  26.102   3.297
 3327POPE   PO437680  24.193  25.818   3.415
 3327POPE   GL137681  24.298  25.668   3.768
 3327POPE   GL237682  24.169  25.778   3.952
 3327POPE   C1A37683  24.754  25.698   3.937
 3327POPE   D2A37684  25.239  25.696   4.128
 3327POPE   C3A37685  25.332  25.297   4.356
 3327POPE   C4A37686  25.512  24.824   4.329
 3327POPE   C1B37687  24.328  26.048   4.171
 3327POPE   C2B37688  24.406  26.291   4.486
 3327POPE   C3B37689  24.405  26.418   4.930
 3327POPE   C4B37690  24.056  26.254   5.290
 3328POPE   NH337691  26.797  23.588   2.812
 3328POPE   PO437692  26.560  23.851   2.891
 3328POPE   GL137693  26.450  23.821   3.393
 3328POPE   GL237694  26.728  23.817   3.345
 3328POPE   C1A37695  26.440  24.226   3.530
 3328POPE   D2A37696  26.723  24.555   3.684
 3328POPE   C3A37697  27.126  24.365   3.846
 3328POPE   C4A37698  27.533  24.624   4.003
 3328POPE   C1B37699  26.945  24.026   3.516
 3328POPE   C2B37700  27.177  24.339   3.386
 3328POPE   C3B37701  27.441  24.731   3.510
 3328POPE   C4B37702  27.682  25.061   3.743
 3329POPE   NH337703  20.524   4.999   3.564
 3329POPE   PO437704  20.865   5.034   3.434
 3329POPE   GL137705  21.200   5.111   3.719
 3329POPE   GL237706  21.130   5.365   3.713
 3329POPE   C1A37707  21.163   5.083   4.117
 3329POPE   D2A37708  21.225   5.212   4.573
 3329POPE   C3A37709  21.360   5.394   4.969
 3329POPE   C4A37710  21.587   5.263   5.422
 3329POPE   C1B37711  21.103   5.640   3.932
 3329POPE   C2B37712  20.994   5.955   4.217
 3329POPE   C3B37713  20.832   6.194   4.572
 3329POPE   C4B37714  21.009   6.467   5.004
 3330POPE   NH337715  30.127  21.056   3.312
 3330POPE   PO437716  29.877  21.319   3.269
 3330POPE   GL137717  29.934  21.351   3.640
 3330POPE   GL237718  29.980  21.103   3.763
 3330POPE   C1A37719  30.026  21.636   4.022
 3330POPE   D2A37720  30.242  21.884   4.436
 3330POPE   C3A37721  30.555  22.085   4.645
 3330POPE   C4A37722  30.861  22.415   4.552
 3330POPE   C1B37723  29.776  21.185   4.023
 3330POPE   C2B37724  29.718  21.468   4.335
 3330POPE   C3B37725  29.354  21.693   4.566
 3330POPE   C4B37726  28.861  21.701   4.800
 3331POPE   NH337727  11.834  24.523   2.712
 3331POPE   PO437728  12.075  24.653   2.987
 3331POPE   GL137729  12.023  24.607   3.349
 3331POPE   GL237730  11.727  24.670   3.376
 3331POPE   C1A37731  11.992  24.710   3.781
 3331POPE   D2A37732  11.866  24.895   4.187
 3331POPE   C3A37733  11.929  24.699   4.656
 3331POPE   C4A37734  11.906  24.221   4.707
 3331POPE   C1B37735  11.555  24.517   3.658
 3331POPE   C2B37736  11.383  24.460   4.006
 3331POPE   C3B37737  11.234  24.118   4.327
 3331POPE   C4B37738  10.847  23.888   4.178
 3332POPE   NH337739  22.129  35.913   3.305
 3332POPE   PO437740  21.929  36.107   3.073
 3332POPE   GL137741  21.954  36.357   3.472
 3332POPE   GL237742  21.861  36.569   3.328
 3332POPE   C1A37743  22.057  36.435   3.896
 3332POPE   D2A37744  22.171  36.580   4.305
 3332POPE   C3A37745  22.032  36.700   4.765
 3332POPE   C4A37746  22.215  37.116   5.066
 3332POPE   C1B37747  21.784  36.753   3.600
 3332POPE   C2B37748  21.695  36.978   3.949
 3332POPE   C3B37749  21.689  36.978   4.375
 3332POPE   C4B37750  21.733  37.092   4.886
 3333POPE   NH337751  29.696  15.321   3.384
 3333POPE   PO437752  29.696  15.655   3.536
 3333POPE   GL137753  29.531  15.774   3.827
 3333POPE   GL237754  29.762  15.750   3.991
 3333POPE   C1A37755  29.306  15.915   4.190
 3333POPE   D2A37756  28.942  16.082   4.497
 3333POPE   C3A37757  29.191  16.423   4.651
 3333POPE   C4A37758  29.415  16.869   4.764
 3333POPE   C1B37759  29.744  15.872   4.301
 3333POPE   C2B37760  29.855  15.792   4.691
 3333POPE   C3B37761  29.983  16.158   4.985
 3333POPE   C4B37762  30.134  16.394   5.373
 3334POPE   NH337763  24.227  33.868   3.078
 3334POPE   PO437764  24.349  33.572   3.222
 3334POPE   GL137765  24.202  33.791   3.598
 3334POPE   GL237766  24.551  33.678   3.590
 3334POPE   C1A37767  23.921  33.673   3.858
 3334POPE   D2A37768  23.794  33.567   4.288
 3334POPE   C3A37769  23.587  33.591   4.725
 3334POPE   C4A37770  23.565  33.892   5.107
 3334POPE   C1B37771  24.723  33.611   3.896
 3334POPE   C2B37772  24.941  33.847   4.198
 3334POPE   C3B37773  25.275  34.089   4.384
 3334POPE   C4B37774  25.724  34.255   4.095
 3335POPE   NH337775  19.571   3.726   3.711
 3335POPE   PO437776  19.413   3.400   3.723
 3335POPE   GL137777  19.632   3.270   3.954
 3335POPE   GL237778  19.775   3.560   4.100
 3335POPE   C1A37779  19.521   3.124   4.340
 3335POPE   D2A37780  19.494   3.082   4.851
 3335POPE   C3A37781  19.171   2.811   5.075
 3335POPE   C4A37782  18.748   2.612   5.256
 3335POPE   C1B37783  19.629   3.611   4.437
 3335POPE   C2B37784  19.330   3.532   4.741
 3335POPE   C3B37785  19.142   3.734   5.117
 3335POPE   C4B37786  18.919   4.019   5.411
 3336POPE   NH337787  32.415  32.109   3.454
 3336POPE   PO437788  32.595  32.390   3.601
 3336POPE   GL137789  32.818  32.195   3.844
 3336POPE   GL237790  32.758  32.498   4.001
 3336POPE   C1A37791  32.731  31.985   4.188
 3336POPE   D2A37792  32.393  31.919   4.549
 3336POPE   C3A37793  32.244  32.139   4.939
 3336POPE   C4A37794  32.174  32.632   5.038
 3336POPE   C1B37795  32.922  32.717   4.244
 3336POPE   C2B37796  32.979  32.937   4.630
 3336POPE   C3B37797  33.134  32.916   5.048
 3336POPE   C4B37798  33.366  33.273   5.360
 3337POPE   NH337799   5.706  21.006   3.548
 3337POPE   PO437800   5.561  21.331   3.591
 3337POPE   GL137801   5.593  21.309   4.012
 3337POPE   GL237802   5.447  21.511   4.041
 3337POPE   C1A37803   5.552  21.089   4.387
 3337POPE   D2A37804   5.362  20.728   4.664
 3337POPE   C3A37805   5.451  20.547   5.137
 3337POPE   C4A37806   5.805  20.474   5.529
 3337POPE   C1B37807   5.635  21.727   4.352
 3337POPE   C2B37808   5.444  21.866   4.737
 3337POPE   C3B37809   5.280  21.616   5.149
 3337POPE   C4B37810   5.136  21.834   5.555
 3338POPE   NH337811  21.611  15.958   3.060
 3338POPE   PO437812  21.573  15.797   3.378
 3338POPE   GL137813  21.223  15.654   3.628
 3338POPE   GL237814  21.352  15.388   3.715
 3338POPE   C1A37815  21.035  15.655   4.034
 3338POPE   D2A37816  20.927  15.425   4.474
 3338POPE   C3A37817  20.808  15.448   4.887
 3338POPE   C4A37818  20.829  15.633   5.301
 3338POPE   C1B37819  21.243  15.256   4.033
 3338POPE   C2B37820  21.353  15.097   4.355
 3338POPE   C3B37821  21.134  14.969   4.757
 3338POPE   C4B37822  21.102  14.589   5.104
 3339POPE   NH337823  16.027  35.468   3.083
 3339POPE   PO437824  15.811  35.221   3.186
 3339POPE   GL137825  15.891  35.390   3.514
 3339POPE   GL237826  16.072  35.597   3.510
 3339POPE   C1A37827  15.793  35.321   3.953
 3339POPE   D2A37828  15.607  35.378   4.400
 3339POPE   C3A37829  15.950  35.104   4.540
 3339POPE   C4A37830  16.012  34.681   4.432
 3339POPE   C1B37831  16.192  35.604   3.835
 3339POPE   C2B37832  16.412  35.427   4.152
 3339POPE   C3B37833  16.569  35.228   4.540
 3339POPE   C4B37834  16.688  35.138   5.011
 3340POPE   NH337835   4.372   0.220   2.690
 3340POPE   PO437836   4.318   0.043   3.006
 3340POPE   GL137837   4.249   0.147   3.503
 3340POPE   GL237838   4.071   0.360   3.421
 3340POPE   C1A37839   4.504   0.270   3.845
 3340POPE   D2A37840   4.555   0.388   4.303
 3340POPE   C3A37841   4.510   0.207   4.704
 3340POPE   C4A37842   4.508  -0.046   5.138
 3340POPE   C1B37843   4.146   0.625   3.634
 3340POPE   C2B37844   4.146   1.053   3.768
 3340POPE   C3B37845   4.025   1.525   3.881
 3340POPE   C4B37846   3.778   1.935   3.923
 3341POPE   NH337847   5.439  13.119   3.647
 3341POPE   PO437848   5.781  13.073   3.592
 3341POPE   GL137849   5.995  12.746   3.846
 3341POPE   GL237850   5.765  12.809   3.969
 3341POPE   C1A37851   6.315  12.887   4.169
 3341POPE   D2A37852   6.420  13.305   4.434
 3341POPE   C3A37853   6.083  13.340   4.869
 3341POPE   C4A37854   5.761  13.421   5.258
 3341POPE   C1B37855   5.871  12.849   4.293
 3341POPE   C2B37856   6.008  12.924   4.622
 3341POPE   C3B37857   6.097  12.831   5.134
 3341POPE   C4B37858   6.192  12.867   5.648
 3342POPE   NH337859  21.709  23.094   3.197
 3342POPE   PO437860  21.418  23.032   3.378
 3342POPE   GL137861  21.246  23.113   3.722
 3342POPE   GL237862  21.104  23.197   3.879
 3342POPE   C1A37863  21.451  22.778   4.054
 3342POPE   D2A37864  21.429  22.797   4.541
 3342POPE   C3A37865  21.215  22.816   4.999
 3342POPE   C4A37866  20.765  22.654   5.159
 3342POPE   C1B37867  21.264  23.186   4.190
 3342POPE   C2B37868  21.204  23.205   4.563
 3342POPE   C3B37869  21.246  23.343   5.034
 3342POPE   C4B37870  21.124  23.747   5.165
 3343POPE   NH337871  11.550  24.862   3.045
 3343POPE   PO437872  11.657  25.025   2.801
 3343POPE   GL137873  11.404  25.289   3.048
 3343POPE   GL237874  11.660  25.353   3.178
 3343POPE   C1A37875  11.197  25.316   3.438
 3343POPE   D2A37876  11.049  25.271   3.968
 3343POPE   C3A37877  10.606  25.133   4.123
 3343POPE   C4A37878  10.154  25.067   4.278
 3343POPE   C1B37879  11.635  25.382   3.539
 3343POPE   C2B37880  11.716  25.365   4.012
 3343POPE   C3B37881  11.724  25.249   4.513
 3343POPE   C4B37882  11.542  24.975   4.902
 3344POPE   NH337883  34.964  28.553   3.327
 3344POPE   PO437884  35.007  28.205   3.299
 3344POPE   GL137885  35.073  27.917   3.654
 3344POPE   GL237886  35.348  27.882   3.705
 3344POPE   C1A37887  34.815  27.943   3.994
 3344POPE   D2A37888  34.465  28.059   4.293
 3344POPE   C3A37889  34.310  28.350   4.703
 3344POPE   C4A37890  34.171  28.541   5.139
 3344POPE   C1B37891  35.418  27.713   4.029
 3344POPE   C2B37892  35.475  27.665   4.405
 3344POPE   C3B37893  35.508  27.573   4.910
 3344POPE   C4B37894  35.416  27.506   5.444
 3345POPE   NH337895  25.329  14.254   3.113
 3345POPE   PO437896  25.332  13.996   3.313
 3345POPE   GL137897  25.698  13.881   3.502
 3345POPE   GL237898  25.659  13.638   3.594
 3345POPE   C1A37899  25.793  14.146   3.850
 3345POPE   D2A37900  25.909  14.489   4.164
 3345POPE   C3A37901  26.054  14.599   4.561
 3345POPE   C4A37902  26.262  14.640   5.025
 3345POPE   C1B37903  25.778  13.746   3.902
 3345POPE   C2B37904  25.837  13.547   4.291
 3345POPE   C3B37905  25.931  13.548   4.713
 3345POPE   C4B37906  26.102  13.549   5.177
 3346POPE   NH337907  35.770  14.765   3.406
 3346POPE   PO437908  35.614  15.088   3.468
 3346POPE   GL137909  35.658  15.058   3.891
 3346POPE   GL237910  35.619  14.749   3.893
 3346POPE   C1A37911  35.369  15.226   4.206
 3346POPE   D2A37912  35.068  15.105   4.551
 3346POPE   C3A37913  35.041  14.965   4.987
 3346POPE   C4A37914  35.344  14.769   5.297
 3346POPE   C1B37915  35.703  14.445   4.143
 3346POPE   C2B37916  35.985  14.452   4.494
 3346POPE   C3B37917  36.112  14.544   4.966
 3346POPE   C4B37918  36.068  14.462   5.439
 3347POPE   NH337919  33.958   1.547   3.568
 3347POPE   PO437920  34.269   1.467   3.407
 3347POPE   GL137921  34.508   1.586   3.699
 3347POPE   GL237922  34.250   1.725   3.867
 3347POPE   C1A37923  34.728   1.335   3.948
 3347POPE   D2A37924  34.885   1.275   4.403
 3347POPE   C3A37925  34.812   1.395   4.830
 3347POPE   C4A37926  34.647   1.163   5.230
 3347POPE   C1B37927  34.407   1.679   4.163
 3347POPE   C2B37928  34.553   1.732   4.537
 3347POPE   C3B37929  34.512   1.874   4.985
 3347POPE   C4B37930  34.392   2.083   5.387
 3348POPE   NH337931  15.429  19.894   3.535
 3348POPE   PO437932  15.305  19.583   3.399
 3348POPE   GL137933  15.341  19.416   3.785
 3348POPE   GL237934  15.111  19.661   3.961
 3348POPE   C1A37935  15.540  19.079   3.993
 3348POPE   D2A37936  15.530  18.713   4.354
 3348POPE   C3A37937  15.285  18.997   4.667
 3348POPE   C4A37938  14.998  19.109   5.066
 3348POPE   C1B37939  14.920  19.784   4.248
 3348POPE   C2B37940  14.763  19.897   4.662
 3348POPE   C3B37941  14.703  19.818   5.090
 3348POPE   C4B37942  14.766  19.555   5.472
 3349POPE   NH337943   5.174   7.654   3.798
 3349POPE   PO437944   5.347   7.325   3.812
 3349POPE   GL137945   5.430   7.201   4.182
 3349POPE   GL237946   5.637   7.011   4.064
 3349POPE   C1A37947   5.364   7.372   4.584
 3349POPE   D2A37948   5.033   7.244   4.929
 3349POPE   C3A37949   4.860   7.459   5.316
 3349POPE   C4A37950   4.560   7.505   5.670
 3349POPE   C1B37951   5.716   6.647   4.196
 3349POPE   C2B37952   5.678   6.275   4.274
 3349POPE   C3B37953   5.929   5.839   4.335
 3349POPE   C4B37954   6.246   5.623   4.657
 3350POPE   NH337955   4.501  29.602   3.277
 3350POPE   PO437956   4.455  29.238   3.259
 3350POPE   GL137957   4.243  29.308   3.638
 3350POPE   GL237958   4.562  29.415   3.711
 3350POPE   C1A37959   4.145  29.373   4.046
 3350POPE   D2A37960   4.071  29.522   4.542
 3350POPE   C3A37961   4.405  29.217   4.745
 3350POPE   C4A37962   4.672  28.924   4.448
 3350POPE   C1B37963   4.607  29.539   4.025
 3350POPE   C2B37964   4.766  29.439   4.414
 3350POPE   C3B37965   4.890  29.405   4.874
 3350POPE   C4B37966   4.891  29.747   5.227
 3351POPE   NH337967  25.138  27.384   3.031
 3351POPE   PO437968  25.055  27.699   3.032
 3351POPE   GL137969  25.000  27.660   3.400
 3351POPE   GL237970  25.222  27.471   3.497
 3351POPE   C1A37971  24.842  27.956   3.699
 3351POPE   D2A37972  24.585  28.078   4.144
 3351POPE   C3A37973  24.461  28.365   4.468
 3351POPE   C4A37974  24.627  28.462   4.923
 3351POPE   C1B37975  25.325  27.562   3.882
 3351POPE   C2B37976  25.364  27.546   4.326
 3351POPE   C3B37977  25.643  27.602   4.689
 3351POPE   C4B37978  25.978  27.829   4.886
 3352POPE   NH337979  29.571   7.510   2.667
 3352POPE   PO437980  29.513   7.813   2.865
 3352POPE   GL137981  29.621   7.823   3.189
 3352POPE   GL237982  29.634   7.541   3.277
 3352POPE   C1A37983  29.571   7.974   3.609
 3352POPE   D2A37984  29.210   7.726   3.841
 3352POPE   C3A37985  29.040   7.441   4.102
 3352POPE   C4A37986  28.921   7.148   4.514
 3352POPE   C1B37987  29.870   7.499   3.527
 3352POPE   C2B37988  30.084   7.563   3.862
 3352POPE   C3B37989  30.360   7.461   4.225
 3352POPE   C4B37990  30.401   7.294   4.713
 3353POPE   NH337991  15.734   9.190   3.514
 3353POPE   PO437992  15.449   9.175   3.733
 3353POPE   GL137993  15.493   9.215   4.113
 3353POPE   GL237994  15.363   9.277   4.310
 3353POPE   C1A37995  15.754   9.282   4.407
 3353POPE   D2A37996  15.523   9.431   4.840
 3353POPE   C3A37997  15.512   9.251   5.223
 3353POPE   C4A37998  15.241   9.418   5.571
 3353POPE   C1B37999  15.248   9.146   4.607
 3353POPE   C2B38000  15.217   8.946   4.987
 3353POPE   C3B38001  15.097   8.559   5.287
 3353POPE   C4B38002  15.160   8.099   5.304
 3354POPE   NH338003  21.469  34.087   3.329
 3354POPE   PO438004  21.803  33.976   3.301
 3354POPE   GL138005  21.781  34.154   3.648
 3354POPE   GL238006  21.916  34.400   3.636
 3354POPE   C1A38007  21.673  34.161   4.114
 3354POPE   D2A38008  21.683  34.282   4.585
 3354POPE   C3A38009  21.722  34.328   5.048
 3354POPE   C4A38010  21.527  34.253   5.476
 3354POPE   C1B38011  21.984  34.597   3.912
 3354POPE   C2B38012  22.011  34.667   4.378
 3354POPE   C3B38013  21.915  34.716   4.863
 3354POPE   C4B38014  21.706  35.009   5.269
 3355POPE   NH338015  16.210  19.281   3.447
 3355POPE   PO438016  16.083  18.967   3.597
 3355POPE   GL138017  16.117  19.009   3.981
 3355POPE   GL238018  16.230  19.322   3.945
 3355POPE   C1A38019  15.966  18.822   4.298
 3355POPE   D2A38020  15.920  19.077   4.776
 3355POPE   C3A38021  15.586  19.006   5.102
 3355POPE   C4A38022  15.551  18.848   5.612
 3355POPE   C1B38023  16.503  19.272   4.249
 3355POPE   C2B38024  16.808  19.269   4.554
 3355POPE   C3B38025  17.016  19.199   4.957
 3355POPE   C4B38026  17.141  19.263   5.390
 3356POPE   NH338027  28.829  18.358   3.132
 3356POPE   PO438028  28.557  18.148   3.140
 3356POPE   GL138029  28.342  18.057   3.535
 3356POPE   GL238030  28.106  18.157   3.412
 3356POPE   C1A38031  28.282  18.017   3.969
 3356POPE   D2A38032  28.342  18.303   4.460
 3356POPE   C3A38033  28.180  18.530   4.878
 3356POPE   C4A38034  27.717  18.562   5.058
 3356POPE   C1B38035  27.888  18.265   3.723
 3356POPE   C2B38036  27.785  18.451   4.076
 3356POPE   C3B38037  27.690  18.556   4.509
 3356POPE   C4B38038  27.353  18.361   4.728
 3357POPE   NH338039   2.320  16.715   3.710
 3357POPE   PO438040   2.612  16.617   3.606
 3357POPE   GL138041   2.755  16.700   3.939
 3357POPE   GL238042   3.018  16.845   3.890
 3357POPE   C1A38043   2.538  16.960   4.195
 3357POPE   D2A38044   2.438  17.131   4.648
 3357POPE   C3A38045   2.428  17.374   5.094
 3357POPE   C4A38046   2.847  17.452   5.349
 3357POPE   C1B38047   3.151  16.881   4.230
 3357POPE   C2B38048   3.261  16.901   4.631
 3357POPE   C3B38049   3.343  17.091   5.090
 3357POPE   C4B38050   3.276  17.125   5.576
 3358POPE   NH338051  31.238  11.657   3.686
 3358POPE   PO438052  30.883  11.708   3.818
 3358POPE   GL138053  30.814  12.035   4.086
 3358POPE   GL238054  30.551  12.095   3.999
 3358POPE   C1A38055  30.889  11.895   4.444
 3358POPE   D2A38056  31.115  11.875   4.849
 3358POPE   C3A38057  31.453  11.568   5.037
 3358POPE   C4A38058  31.765  11.295   5.286
 3358POPE   C1B38059  30.410  12.010   4.339
 3358POPE   C2B38060  30.393  11.879   4.715
 3358POPE   C3B38061  30.696  11.876   5.087
 3358POPE   C4B38062  31.078  11.789   5.443
 3359POPE   NH338063   4.697  14.933   3.694
 3359POPE   PO438064   5.074  14.970   3.717
 3359POPE   GL138065   5.086  14.901   4.066
 3359POPE   GL238066   5.119  15.206   4.179
 3359POPE   C1A38067   5.159  14.579   4.390
 3359POPE   D2A38068   5.097  14.302   4.739
 3359POPE   C3A38069   5.054  14.286   5.196
 3359POPE   C4A38070   4.963  14.155   5.625
 3359POPE   C1B38071   5.193  15.162   4.538
 3359POPE   C2B38072   5.233  15.173   4.954
 3359POPE   C3B38073   5.428  15.173   5.409
 3359POPE   C4B38074   5.595  15.283   5.832
 3360POPE   NH338075   4.245  28.013   3.215
 3360POPE   PO438076   3.913  27.931   3.289
 3360POPE   GL138077   3.741  28.018   3.664
 3360POPE   GL238078   3.503  28.058   3.611
 3360POPE   C1A38079   3.660  27.879   4.095
 3360POPE   D2A38080   3.894  28.134   4.537
 3360POPE   C3A38081   4.177  27.990   4.860
 3360POPE   C4A38082   4.413  27.571   4.624
 3360POPE   C1B38083   3.331  28.161   3.917
 3360POPE   C2B38084   3.400  28.243   4.345
 3360POPE   C3B38085   3.521  27.884   4.722
 3360POPE   C4B38086   3.275  27.651   5.085
 3361POPE   NH338087  32.143  34.995   3.492
 3361POPE   PO438088  31.850  34.998   3.267
 3361POPE   GL138089  31.681  34.946   3.644
 3361POPE   GL238090  31.793  34.714   3.704
 3361POPE   C1A38091  31.497  35.093   4.012
 3361POPE   D2A38092  31.197  35.442   4.302
 3361POPE   C3A38093  30.952  35.404   4.701
 3361POPE   C4A38094  30.826  35.264   5.152
 3361POPE   C1B38095  31.802  34.759   4.050
 3361POPE   C2B38096  31.789  34.947   4.416
 3361POPE   C3B38097  31.570  35.272   4.662
 3361POPE   C4B38098  31.413  35.431   5.053
 3362POPE   NH338099  22.841  35.731   2.931
 3362POPE   PO438100  22.661  35.934   3.138
 3362POPE   GL138101  22.545  35.686   3.500
 3362POPE   GL238102  22.718  35.437   3.469
 3362POPE   C1A38103  22.199  35.915   3.832
 3362POPE   D2A38104  22.233  36.118   4.302
 3362POPE   C3A38105  22.268  36.264   4.723
 3362POPE   C4A38106  21.903  36.300   5.066
 3362POPE   C1B38107  22.809  35.215   3.724
 3362POPE   C2B38108  22.630  34.993   4.026
 3362POPE   C3B38109  22.502  34.963   4.434
 3362POPE   C4B38110  22.342  35.078   4.881
 3363POPE   NH338111  21.759  30.006   3.557
 3363POPE   PO438112  21.826  30.306   3.447
 3363POPE   GL138113  21.862  30.405   3.780
 3363POPE   GL238114  21.779  30.614   3.927
 3363POPE   C1A38115  21.771  30.100   4.087
 3363POPE   D2A38116  21.973  29.985   4.497
 3363POPE   C3A38117  22.045  29.806   4.931
 3363POPE   C4A38118  22.267  29.658   5.353
 3363POPE   C1B38119  21.633  30.514   4.192
 3363POPE   C2B38120  21.622  30.291   4.555
 3363POPE   C3B38121  21.543  29.899   4.836
 3363POPE   C4B38122  21.535  29.612   5.224
 3364POPE   NH338123   0.131   1.977   3.043
 3364POPE   PO438124   0.388   1.801   3.189
 3364POPE   GL138125   0.210   1.835   3.467
 3364POPE   GL238126  -0.081   1.936   3.514
 3364POPE   C1A38127   0.431   1.822   3.890
 3364POPE   D2A38128   0.871   1.709   4.114
 3364POPE   C3A38129   0.902   1.681   4.562
 3364POPE   C4A38130   1.112   1.588   4.969
 3364POPE   C1B38131  -0.090   1.966   3.846
 3364POPE   C2B38132   0.044   1.933   4.242
 3364POPE   C3B38133   0.321   1.720   4.558
 3364POPE   C4B38134   0.520   1.418   4.863
 3365POPE   NH338135  18.143  10.562   4.152
 3365POPE   PO438136  18.500  10.600   4.139
 3365POPE   GL138137  18.666  10.685   4.538
 3365POPE   GL238138  18.905  10.586   4.500
 3365POPE   C1A38139  18.449  10.771   4.907
 3365POPE   D2A38140  18.267  10.598   5.341
 3365POPE   C3A38141  18.469  10.226   5.582
 3365POPE   C4A38142  18.818   9.989   5.387
 3365POPE   C1B38143  19.049  10.578   4.835
 3365POPE   C2B38144  19.278  10.339   5.101
 3365POPE   C3B38145  19.280   9.974   5.417
 3365POPE   C4B38146  19.063   9.514   5.475
 3366POPE   NH338147  31.573   2.884   3.130
 3366POPE   PO438148  31.402   2.801   3.408
 3366POPE   GL138149  31.591   2.775   3.811
 3366POPE   GL238150  31.501   2.489   3.827
 3366POPE   C1A38151  31.784   2.891   4.146
 3366POPE   D2A38152  31.922   2.938   4.603
 3366POPE   C3A38153  31.690   2.835   5.021
 3366POPE   C4A38154  31.488   2.506   5.308
 3366POPE   C1B38155  31.549   2.442   4.158
 3366POPE   C2B38156  31.658   2.415   4.553
 3366POPE   C3B38157  31.702   2.193   4.920
 3366POPE   C4B38158  31.890   1.945   5.267
 3367POPE   NH338159  35.109   2.961   3.310
 3367POPE   PO438160  35.317   3.274   3.292
 3367POPE   GL138161  35.323   3.264   3.798
 3367POPE   GL238162  35.100   3.482   3.672
 3367POPE   C1A38163  35.474   3.286   4.217
 3367POPE   D2A38164  35.619   3.465   4.726
 3367POPE   C3A38165  35.780   3.218   5.130
 3367POPE   C4A38166  35.772   3.203   5.629
 3367POPE   C1B38167  34.990   3.674   3.933
 3367POPE   C2B38168  34.885   3.689   4.298
 3367POPE   C3B38169  34.725   3.802   4.699
 3367POPE   C4B38170  34.583   3.958   5.115
 3368POPE   NH338171  24.827   6.905   3.567
 3368POPE   PO438172  24.682   6.636   3.421
 3368POPE   GL138173  24.411   6.781   3.684
 3368POPE   GL238174  24.405   7.108   3.679
 3368POPE   C1A38175  24.442   6.888   4.161
 3368POPE   D2A38176  24.613   6.608   4.532
 3368POPE   C3A38177  24.546   6.686   5.017
 3368POPE   C4A38178  24.570   6.613   5.522
 3368POPE   C1B38179  24.074   7.097   3.888
 3368POPE   C2B38180  23.879   6.997   4.270
 3368POPE   C3B38181  23.897   7.092   4.720
 3368POPE   C4B38182  23.714   7.050   5.178
 3369POPE   NH338183  14.409  27.935   3.281
 3369POPE   PO438184  14.074  27.893   3.254
 3369POPE   GL138185  13.800  27.916   3.549
 3369POPE   GL238186  13.991  27.715   3.691
 3369POPE   C1A38187  13.459  27.840   3.845
 3369POPE   D2A38188  13.520  27.598   4.312
 3369POPE   C3A38189  13.417  27.616   4.738
 3369POPE   C4A38190  13.460  27.665   5.212
 3369POPE   C1B38191  13.980  27.719   4.079
 3369POPE   C2B38192  13.841  27.857   4.508
 3369POPE   C3B38193  13.810  27.907   4.971
 3369POPE   C4B38194  13.874  28.162   5.393
 3370POPE   NH338195  18.526  16.304   3.008
 3370POPE   PO438196  18.731  16.148   3.251
 3370POPE   GL138197  18.884  16.144   3.629
 3370POPE   GL238198  18.597  16.123   3.770
 3370POPE   C1A38199  19.247  16.215   3.836
 3370POPE   D2A38200  19.703  16.363   4.001
 3370POPE   C3A38201  20.036  16.559   4.181
 3370POPE   C4A38202  20.188  16.686   4.680
 3370POPE   C1B38203  18.699  16.160   4.129
 3370POPE   C2B38204  18.830  16.267   4.496
 3370POPE   C3B38205  19.220  16.297   4.782
 3370POPE   C4B38206  19.560  16.238   5.187
 3371POPE   NH338207  35.753  11.316   3.152
 3371POPE   PO438208  36.031  11.079   3.190
 3371POPE   GL138209  35.841  11.100   3.580
 3371POPE   GL238210  35.579  11.262   3.562
 3371POPE   C1A38211  35.928  11.065   4.015
 3371POPE   D2A38212  35.846  11.010   4.453
 3371POPE   C3A38213  36.016  10.837   4.860
 3371POPE   C4A38214  36.174  10.423   5.127
 3371POPE   C1B38215  35.460  11.279   3.868
 3371POPE   C2B38216  35.414  11.322   4.276
 3371POPE   C3B38217  35.316  11.393   4.764
 3371POPE   C4B38218  35.057  11.300   5.175
 3372POPE   NH338219  14.033   7.501   3.681
 3372POPE   PO438220  14.302   7.749   3.648
 3372POPE   GL138221  14.256   7.761   4.079
 3372POPE   GL238222  14.327   7.466   4.111
 3372POPE   C1A38223  14.181   7.697   4.485
 3372POPE   D2A38224  14.252   7.766   4.982
 3372POPE   C3A38225  14.160   7.857   5.450
 3372POPE   C4A38226  13.809   8.225   5.700
 3372POPE   C1B38227  14.452   7.257   4.350
 3372POPE   C2B38228  14.640   7.235   4.718
 3372POPE   C3B38229  14.864   7.012   5.069
 3372POPE   C4B38230  15.015   7.094   5.551
 3373DLPE   NH338231   5.832  13.835   3.402
 3373DLPE   PO438232   5.964  13.510   3.353
 3373DLPE   GL138233   6.099  13.346   3.800
 3373DLPE   GL238234   5.927  13.361   3.919
 3373DLPE   C1A38235   6.479  13.350   3.943
 3373DLPE   D2A38236   6.898  13.383   4.221
 3373DLPE   D3A38237   6.847  13.423   4.673
 3373DLPE   C4A38238   6.633  13.555   5.061
 3373DLPE   C1B38239   5.874  13.319   4.361
 3373DLPE   D2B38240   5.589  13.128   4.743
 3373DLPE   D3B38241   5.584  12.818   5.165
 3373DLPE   C4B38242   5.455  12.393   5.357
 3374DLPE   NH338243   7.133  15.756   3.488
 3374DLPE   PO438244   6.852  15.863   3.585
 3374DLPE   GL138245   6.741  15.879   3.964
 3374DLPE   GL238246   6.746  16.203   3.916
 3374DLPE   C1A38247   6.698  15.931   4.377
 3374DLPE   D2A38248   6.985  16.190   4.687
 3374DLPE   D3A38249   7.175  16.081   5.072
 3374DLPE   C4A38250   7.408  15.871   5.434
 3374DLPE   C1B38251   6.500  16.380   4.304
 3374DLPE   D2B38252   6.298  16.357   4.744
 3374DLPE   D3B38253   6.602  16.153   5.031
 3374DLPE   C4B38254   6.629  15.747   4.807
 3375DLPE   NH338255  27.539  26.767   2.802
 3375DLPE   PO438256  27.427  27.073   2.948
 3375DLPE   GL138257  27.279  26.740   3.239
 3375DLPE   GL238258  27.058  26.921   3.217
 3375DLPE   C1A38259  27.243  26.726   3.675
 3375DLPE   D2A38260  27.427  26.764   4.101
 3375DLPE   D3A38261  27.354  26.336   4.339
 3375DLPE   C4A38262  27.499  26.023   4.660
 3375DLPE   C1B38263  26.901  27.033   3.641
 3375DLPE   D2B38264  27.162  27.251   4.018
 3375DLPE   D3B38265  27.269  27.514   4.326
 3375DLPE   C4B38266  27.520  27.507   4.757
 3376DLPE   NH338267  17.086  21.331   3.671
 3376DLPE   PO438268  17.223  21.107   3.852
 3376DLPE   GL138269  17.216  21.192   4.277
 3376DLPE   GL238270  17.318  20.866   4.245
 3376DLPE   C1A38271  17.066  21.305   4.640
 3376DLPE   D2A38272  16.840  21.533   5.052
 3376DLPE   D3A38273  16.882  21.795   5.365
 3376DLPE   C4A38274  16.628  22.194   5.362
 3376DLPE   C1B38275  17.518  20.611   4.528
 3376DLPE   D2B38276  17.173  20.355   4.726
 3376DLPE   D3B38277  17.070  20.360   5.202
 3376DLPE   C4B38278  16.832  20.123   5.508
 3377DLPE   NH338279   7.973  15.295   3.437
 3377DLPE   PO438280   7.882  15.619   3.371
 3377DLPE   GL138281   7.948  15.895   3.620
 3377DLPE   GL238282   8.248  15.883   3.622
 3377DLPE   C1A38283   7.928  15.906   4.021
 3377DLPE   D2A38284   7.923  16.057   4.487
 3377DLPE   D3A38285   7.571  15.821   4.416
 3377DLPE   C4A38286   7.923  15.461   4.380
 3377DLPE   C1B38287   8.356  15.617   3.983
 3377DLPE   D2B38288   8.546  15.424   4.369
 3377DLPE   D3B38289   8.930  15.272   4.314
 3377DLPE   C4B38290   9.244  15.417   4.565
 3378DLPE   NH338291  31.305  19.558   3.220
 3378DLPE   PO438292  31.206  19.317   3.461
 3378DLPE   GL138293  31.242  19.104   3.796
 3378DLPE   GL238294  31.509  18.970   3.742
 3378DLPE   C1A38295  30.943  19.113   4.071
 3378DLPE   D2A38296  30.625  19.267   4.402
 3378DLPE   D3A38297  30.743  19.367   4.837
 3378DLPE   C4A38298  30.535  19.739   4.899
 3378DLPE   C1B38299  31.570  18.989   4.178
 3378DLPE   D2B38300  31.696  18.820   4.654
 3378DLPE   D3B38301  31.736  18.770   5.135
 3378DLPE   C4B38302  32.143  18.857   5.153
 3379DLPE   NH338303  22.846  32.163   3.252
 3379DLPE   PO438304  22.892  32.488   3.409
 3379DLPE   GL138305  22.829  32.187   3.730
 3379DLPE   GL238306  22.667  32.030   3.637
 3379DLPE   C1A38307  22.837  32.157   4.192
 3379DLPE   D2A38308  22.921  31.700   4.418
 3379DLPE   D3A38309  23.381  31.624   4.396
 3379DLPE   C4A38310  23.826  31.455   4.457
 3379DLPE   C1B38311  22.854  31.753   3.777
 3379DLPE   D2B38312  23.031  31.340   3.882
 3379DLPE   D3B38313  22.891  31.008   4.148
 3379DLPE   C4B38314  22.834  30.659   3.851
 3380DLPE   NH338315   0.579   4.497   3.237
 3380DLPE   PO438316   0.557   4.841   3.124
 3380DLPE   GL138317   0.577   4.909   3.548
 3380DLPE   GL238318   0.633   4.642   3.641
 3380DLPE   C1A38319   0.439   5.166   3.850
 3380DLPE   D2A38320   0.417   5.238   4.314
 3380DLPE   D3A38321   0.552   5.181   4.735
 3380DLPE   C4A38322   0.649   4.927   5.053
 3380DLPE   C1B38323   0.913   4.565   4.004
 3380DLPE   D2B38324   1.070   4.690   4.427
 3380DLPE   D3B38325   0.855   4.498   4.741
 3380DLPE   C4B38326   1.160   4.816   4.951
 3381DLPE   NH338327  19.769  13.459   3.561
 3381DLPE   PO438328  19.516  13.268   3.606
 3381DLPE   GL138329  19.368  13.418   4.001
 3381DLPE   GL238330  19.638  13.598   3.963
 3381DLPE   C1A38331  19.194  13.613   4.343
 3381DLPE   D2A38332  19.263  14.041   4.623
 3381DLPE   D3A38333  19.632  14.259   4.842
 3381DLPE   C4A38334  20.034  14.210   5.136
 3381DLPE   C1B38335  19.729  13.818   4.360
 3381DLPE   D2B38336  19.958  13.936   4.755
 3381DLPE   D3B38337  19.604  13.707   4.905
 3381DLPE   C4B38338  19.578  13.287   5.195
 3382DLPE   NH338339  18.935  26.080   3.745
 3382DLPE   PO438340  18.649  25.967   3.776
 3382DLPE   GL138341  18.804  26.066   4.193
 3382DLPE   GL238342  18.929  25.816   4.168
 3382DLPE   C1A38343  18.448  26.130   4.502
 3382DLPE   D2A38344  18.273  26.453   4.729
 3382DLPE   D3A38345  18.027  26.388   5.088
 3382DLPE   C4A38346  17.684  26.461   5.340
 3382DLPE   C1B38347  18.811  25.418   4.201
 3382DLPE   D2B38348  18.567  25.125   4.571
 3382DLPE   D3B38349  18.759  24.900   5.003
 3382DLPE   C4B38350  18.929  25.117   5.470
 3383DLPE   NH338351   3.369  13.690   4.261
 3383DLPE   PO438352   3.279  13.360   4.197
 3383DLPE   GL138353   3.295  13.366   4.603
 3383DLPE   GL238354   3.613  13.427   4.567
 3383DLPE   C1A38355   3.300  13.058   4.804
 3383DLPE   D2A38356   3.297  12.737   5.129
 3383DLPE   D3A38357   3.001  12.777   5.479
 3383DLPE   C4A38358   2.599  12.557   5.302
 3383DLPE   C1B38359   3.594  13.780   4.790
 3383DLPE   D2B38360   3.603  13.811   5.240
 3383DLPE   D3B38361   3.493  13.989   5.627
 3383DLPE   C4B38362   3.177  13.678   5.869
 3384DLPE   NH338363  11.147  35.984   2.805
 3384DLPE   PO438364  11.132  36.171   3.112
 3384DLPE   GL138365  11.086  36.005   3.525
 3384DLPE   GL238366  11.240  36.261   3.678
 3384DLPE   C1A38367  10.779  35.915   3.875
 3384DLPE   D2A38368  10.778  35.974   4.317
 3384DLPE   D3A38369  10.638  36.252   4.709
 3384DLPE   C4A38370  10.442  36.496   5.071
 3384DLPE   C1B38371  11.662  36.199   3.750
 3384DLPE   D2B38372  11.976  36.231   4.125
 3384DLPE   D3B38373  12.342  36.428   4.293
 3384DLPE   C4B38374  12.096  36.329   4.630
 3385DLPE   NH338375  17.473  10.648   3.739
 3385DLPE   PO438376  17.736  10.759   3.934
 3385DLPE   GL138377  17.530  10.804   4.321
 3385DLPE   GL238378  17.760  10.640   4.428
 3385DLPE   C1A38379  17.350  11.114   4.563
 3385DLPE   D2A38380  17.002  11.358   4.838
 3385DLPE   D3A38381  16.891  11.758   4.939
 3385DLPE   C4A38382  16.977  11.451   5.317
 3385DLPE   C1B38383  17.784  10.229   4.528
 3385DLPE   D2B38384  17.528  10.196   4.919
 3385DLPE   D3B38385  17.780  10.256   5.231
 3385DLPE   C4B38386  17.929  10.098   5.609
 3386DLPE   NH338387   1.698  26.993   3.793
 3386DLPE   PO438388   1.370  27.013   3.685
 3386DLPE   GL138389   1.074  27.120   3.946
 3386DLPE   GL238390   1.049  26.935   4.064
 3386DLPE   C1A38391   0.718  27.384   4.049
 3386DLPE   D2A38392   0.392  27.771   3.954
 3386DLPE   D3A38393   0.481  28.171   3.928
 3386DLPE   C4A38394   0.698  28.393   4.233
 3386DLPE   C1B38395   0.965  27.065   4.478
 3386DLPE   D2B38396   1.085  27.271   4.980
 3386DLPE   D3B38397   1.339  27.105   5.336
 3386DLPE   C4B38398   1.250  27.332   5.783
 3387DLPE   NH338399   7.212  17.477   3.035
 3387DLPE   PO438400   7.177  17.157   3.142
 3387DLPE   GL138401   7.242  17.269   3.606
 3387DLPE   GL238402   7.494  17.431   3.510
 3387DLPE   C1A38403   7.558  16.949   3.703
 3387DLPE   D2A38404   7.902  16.685   3.920
 3387DLPE   D3A38405   8.028  16.566   4.396
 3387DLPE   C4A38406   7.768  16.824   4.683
 3387DLPE   C1B38407   7.914  17.288   3.617
 3387DLPE   D2B38408   8.092  17.119   4.107
 3387DLPE   D3B38409   8.457  16.966   4.155
 3387DLPE   C4B38410   8.509  16.881   4.646
 3388DLPE   NH338411  16.366   1.658   3.043
 3388DLPE   PO438412  16.572   1.387   3.002
 3388DLPE   GL138413  16.765   1.128   3.330
 3388DLPE   GL238414  16.801   1.329   3.495
 3388DLPE   C1A38415  16.688   0.734   3.513
 3388DLPE   D2A38416  16.739   0.397   3.872
 3388DLPE   D3A38417  16.890   0.337   4.330
 3388DLPE   C4A38418  16.951   0.693   4.568
 3388DLPE   C1B38419  16.727   1.435   3.938
 3388DLPE   D2B38420  16.817   1.168   4.354
 3388DLPE   D3B38421  16.564   1.031   4.694
 3388DLPE   C4B38422  16.098   1.152   4.642
 3389DLPE   NH338423  14.268  13.395   3.016
 3389DLPE   PO438424  14.443  13.093   3.093
 3389DLPE   GL138425  14.588  13.029   3.470
 3389DLPE   GL238426  14.508  13.253   3.596
 3389DLPE   C1A38427  15.059  12.997   3.672
 3389DLPE   D2A38428  15.252  12.645   3.997
 3389DLPE   D3A38429  15.072  12.598   4.424
 3389DLPE   C4A38430  14.650  12.477   4.556
 3389DLPE   C1B38431  14.881  13.556   3.701
 3389DLPE   D2B38432  15.350  13.683   3.506
 3389DLPE   D3B38433  15.712  13.778   3.800
 3389DLPE   C4B38434  15.756  13.480   4.170
 3390DLPE   NH338435  19.835  30.240   3.622
 3390DLPE   PO438436  20.009  29.943   3.669
 3390DLPE   GL138437  20.056  29.913   4.067
 3390DLPE   GL238438  19.831  30.160   4.123
 3390DLPE   C1A38439  19.928  29.825   4.472
 3390DLPE   D2A38440  19.706  29.716   4.868
 3390DLPE   D3A38441  19.659  29.396   5.159
 3390DLPE   C4A38442  19.988  29.685   5.284
 3390DLPE   C1B38443  19.638  30.244   4.565
 3390DLPE   D2B38444  19.801  30.464   4.963
 3390DLPE   D3B38445  19.726  30.239   5.371
 3390DLPE   C4B38446  19.406  29.872   5.281
 3391DLPE   NH338447  34.532  18.193   3.781
 3391DLPE   PO438448  34.562  18.539   3.820
 3391DLPE   GL138449  34.542  18.348   4.222
 3391DLPE   GL238450  34.349  18.099   4.183
 3391DLPE   C1A38451  34.407  18.599   4.608
 3391DLPE   D2A38452  34.485  18.800   5.019
 3391DLPE   D3A38453  34.631  18.679   5.355
 3391DLPE   C4A38454  34.905  18.417   5.596
 3391DLPE   C1B38455  34.061  18.089   4.440
 3391DLPE   D2B38456  33.650  17.995   4.735
 3391DLPE   D3B38457  33.530  18.284   5.137
 3391DLPE   C4B38458  33.195  18.422   5.379
 3392DLPE   NH338459  18.523  28.491   3.491
 3392DLPE   PO438460  18.256  28.688   3.533
 3392DLPE   GL138461  18.062  28.420   3.773
 3392DLPE   GL238462  18.294  28.473   4.000
 3392DLPE   C1A38463  17.701  28.621   3.893
 3392DLPE   D2A38464  17.746  28.939   4.317
 3392DLPE   D3A38465  18.013  29.277   4.505
 3392DLPE   C4A38466  18.477  29.145   4.673
 3392DLPE   C1B38467  18.117  28.666   4.387
 3392DLPE   D2B38468  17.903  28.774   4.818
 3392DLPE   D3B38469  17.935  28.953   5.228
 3392DLPE   C4B38470  17.721  28.838   5.592
 3393DLPE   NH338471  26.056   4.045   3.338
 3393DLPE   PO438472  25.719   3.866   3.349
 3393DLPE   GL138473  25.715   3.942   3.745
 3393DLPE   GL238474  25.932   3.925   3.761
 3393DLPE   C1A38475  25.493   3.764   4.068
 3393DLPE   D2A38476  25.365   3.926   4.542
 3393DLPE   D3A38477  25.678   4.001   4.867
 3393DLPE   C4A38478  25.603   4.162   5.285
 3393DLPE   C1B38479  26.025   3.716   4.168
 3393DLPE   D2B38480  26.110   3.596   4.604
 3393DLPE   D3B38481  26.034   3.738   5.046
 3393DLPE   C4B38482  25.666   3.645   5.290
 3394DLPE   NH338483  26.977  27.029   2.729
 3394DLPE   PO438484  27.000  26.660   2.778
 3394DLPE   GL138485  26.862  26.434   3.099
 3394DLPE   GL238486  26.902  26.288   2.860
 3394DLPE   C1A38487  27.064  26.339   3.497
 3394DLPE   D2A38488  27.018  26.260   3.946
 3394DLPE   D3A38489  27.198  25.939   4.109
 3394DLPE   C4A38490  27.688  25.923   4.218
 3394DLPE   C1B38491  27.038  25.989   3.095
 3394DLPE   D2B38492  27.366  25.875   3.453
 3394DLPE   D3B38493  27.539  26.153   3.746
 3394DLPE   C4B38494  27.953  26.310   3.941
 3395DLPE   NH338495  32.295  33.882   2.862
 3395DLPE   PO438496  32.003  33.938   3.016
 3395DLPE   GL138497  32.063  33.821   3.412
 3395DLPE   GL238498  31.783  33.658   3.472
 3395DLPE   C1A38499  32.028  34.085   3.690
 3395DLPE   D2A38500  31.942  33.974   4.212
 3395DLPE   D3A38501  32.155  34.203   4.529
 3395DLPE   C4A38502  32.098  34.666   4.663
 3395DLPE   C1B38503  31.674  33.666   3.876
 3395DLPE   D2B38504  31.684  33.575   4.390
 3395DLPE   D3B38505  31.920  33.265   4.695
 3395DLPE   C4B38506  32.008  33.322   5.187
 3396DLPE   NH338507  10.136   7.353   3.440
 3396DLPE   PO438508   9.964   7.652   3.541
 3396DLPE   GL138509   9.902   7.534   3.895
 3396DLPE   GL238510   9.917   7.720   3.986
 3396DLPE   C1A38511   9.934   7.189   4.177
 3396DLPE   D2A38512   9.879   6.778   4.375
 3396DLPE   D3A38513  10.067   6.580   4.754
 3396DLPE   C4A38514  10.001   6.847   5.096
 3396DLPE   C1B38515   9.828   7.627   4.389
 3396DLPE   D2B38516   9.529   7.686   4.684
 3396DLPE   D3B38517   9.622   8.042   4.935
 3396DLPE   C4B38518   9.804   8.494   5.077
 3397DLPE   NH338519   1.471  35.389   3.163
 3397DLPE   PO438520   1.139  35.431   3.252
 3397DLPE   GL138521   1.244  35.377   3.668
 3397DLPE   GL238522   1.504  35.620   3.678
 3397DLPE   C1A38523   0.872  35.432   3.984
 3397DLPE   D2A38524   0.676  35.472   4.430
 3397DLPE   D3A38525   0.830  35.495   4.843
 3397DLPE   C4A38526   0.777  35.723   5.259
 3397DLPE   C1B38527   1.727  35.873   3.921
 3397DLPE   D2B38528   1.544  36.348   4.007
 3397DLPE   D3B38529   1.365  36.746   4.102
 3397DLPE   C4B38530   1.044  36.447   4.006
 3398DLPE   NH338531  10.816  11.589   3.363
 3398DLPE   PO438532  11.072  11.829   3.385
 3398DLPE   GL138533  11.040  12.024   3.792
 3398DLPE   GL238534  10.832  11.791   3.861
 3398DLPE   C1A38535  11.243  11.807   4.172
 3398DLPE   D2A38536  11.310  11.362   4.381
 3398DLPE   D3A38537  11.276  11.350   4.801
 3398DLPE   C4A38538  11.718  11.545   4.967
 3398DLPE   C1B38539  10.464  11.899   4.138
 3398DLPE   D2B38540  10.167  11.987   4.488
 3398DLPE   D3B38541  10.336  11.529   4.468
 3398DLPE   C4B38542  10.211  11.349   4.869
 3399DLPE   NH338543  27.326   0.556   3.343
 3399DLPE   PO438544  27.009   0.661   3.476
 3399DLPE   GL138545  27.067   0.654   3.827
 3399DLPE   GL238546  26.776   0.637   3.991
 3399DLPE   C1A38547  27.046   1.028   4.144
 3399DLPE   D2A38548  26.772   1.188   4.528
 3399DLPE   D3A38549  26.599   1.021   4.899
 3399DLPE   C4A38550  26.989   1.083   5.028
 3399DLPE   C1B38551  26.719   0.641   4.432
 3399DLPE   D2B38552  26.446   0.539   4.839
 3399DLPE   D3B38553  26.303   0.770   5.217
 3399DLPE   C4B38554  26.546   0.404   5.362
 3400DLPE   NH338555  21.853  30.963   3.097
 3400DLPE   PO438556  21.756  30.794   3.375
 3400DLPE   GL138557  21.892  30.969   3.785
 3400DLPE   GL238558  22.140  30.761   3.763
 3400DLPE   C1A38559  21.903  31.001   4.229
 3400DLPE   D2A38560  21.689  31.384   4.398
 3400DLPE   D3A38561  21.760  31.591   4.767
 3400DLPE   C4A38562  21.935  31.639   5.260
 3400DLPE   C1B38563  22.401  30.823   4.123
 3400DLPE   D2B38564  22.550  30.707   4.541
 3400DLPE   D3B38565  22.865  30.609   4.833
 3400DLPE   C4B38566  23.124  30.617   4.435
 3401DLPE   NH338567  32.427   1.739   2.957
 3401DLPE   PO438568  32.503   1.390   3.058
 3401DLPE   GL138569  32.421   1.240   3.371
 3401DLPE   GL238570  32.387   0.981   3.324
 3401DLPE   C1A38571  32.322   1.302   3.703
 3401DLPE   D2A38572  32.269   1.425   4.142
 3401DLPE   D3A38573  32.418   1.756   4.363
 3401DLPE   C4A38574  32.603   1.918   4.791
 3401DLPE   C1B38575  32.257   0.784   3.692
 3401DLPE   D2B38576  31.993   0.570   4.036
 3401DLPE   D3B38577  31.941   0.565   4.499
 3401DLPE   C4B38578  31.660   0.789   4.861
 3402DLPE   NH338579  15.781  26.501   2.961
 3402DLPE   PO438580  15.934  26.661   3.266
 3402DLPE   GL138581  15.865  26.818   3.639
 3402DLPE   GL238582  16.161  26.930   3.630
 3402DLPE   C1A38583  15.876  26.664   4.017
 3402DLPE   D2A38584  15.853  26.646   4.501
 3402DLPE   D3A38585  16.076  26.620   4.861
 3402DLPE   C4A38586  16.290  26.959   5.135
 3402DLPE   C1B38587  16.393  27.042   3.999
 3402DLPE   D2B38588  16.303  26.952   4.472
 3402DLPE   D3B38589  15.948  27.113   4.658
 3402DLPE   C4B38590  16.012  27.297   4.222
 3403DLPE   NH338591  21.868   6.768   3.366
 3403DLPE   PO438592  21.532   6.745   3.477
 3403DLPE   GL138593  21.472   6.624   3.750
 3403DLPE   GL238594  21.692   6.408   3.778
 3403DLPE   C1A38595  21.312   6.656   4.136
 3403DLPE   D2A38596  21.568   6.746   4.541
 3403DLPE   D3A38597  21.518   6.762   4.970
 3403DLPE   C4A38598  21.460   7.173   5.260
 3403DLPE   C1B38599  21.886   6.465   4.162
 3403DLPE   D2B38600  21.905   6.345   4.625
 3403DLPE   D3B38601  21.961   6.115   4.986
 3403DLPE   C4B38602  22.235   6.105   5.364
 3404DLPE   NH338603  35.183  17.812   4.093
 3404DLPE   PO438604  34.978  18.131   4.079
 3404DLPE   GL138605  35.371  18.199   4.364
 3404DLPE   GL238606  35.221  18.419   4.401
 3404DLPE   C1A38607  35.588  18.005   4.702
 3404DLPE   D2A38608  35.643  17.755   5.081
 3404DLPE   D3A38609  35.664  17.381   5.353
 3404DLPE   C4A38610  35.506  17.092   5.680
 3404DLPE   C1B38611  34.845  18.463   4.632
 3404DLPE   D2B38612  34.552  18.283   5.002
 3404DLPE   D3B38613  34.442  18.192   5.486
 3404DLPE   C4B38614  34.737  18.100   5.890
 3405DLPE   NH338615   3.423  20.776   3.581
 3405DLPE   PO438616   3.194  20.942   3.763
 3405DLPE   GL138617   3.419  21.077   4.194
 3405DLPE   GL238618   3.069  21.002   4.159
 3405DLPE   C1A38619   3.628  20.916   4.574
 3405DLPE   D2A38620   3.657  20.760   5.091
 3405DLPE   D3A38621   3.736  20.467   5.414
 3405DLPE   C4A38622   3.743  20.012   5.281
 3405DLPE   C1B38623   2.810  20.722   4.363
 3405DLPE   D2B38624   2.937  20.204   4.504
 3405DLPE   D3B38625   3.051  19.839   4.668
 3405DLPE   C4B38626   3.434  19.733   4.901
 3406DLPE   NH338627   5.794  34.758   3.187
 3406DLPE   PO438628   6.066  34.950   3.162
 3406DLPE   GL138629   6.203  35.178   3.529
 3406DLPE   GL238630   6.488  35.259   3.441
 3406DLPE   C1A38631   6.179  35.247   3.994
 3406DLPE   D2A38632   6.334  35.580   4.284
 3406DLPE   D3A38633   6.180  35.896   4.617
 3406DLPE   C4A38634   5.848  35.920   4.880
 3406DLPE   C1B38635   6.852  34.983   3.356
 3406DLPE   D2B38636   7.288  35.143   3.461
 3406DLPE   D3B38637   7.014  35.479   3.695
 3406DLPE   C4B38638   6.727  35.521   3.992
 3407DLPE   NH338639  11.371  22.360   2.624
 3407DLPE   PO438640  11.728  22.312   2.728
 3407DLPE   GL138641  11.633  22.510   3.071
 3407DLPE   GL238642  11.815  22.412   3.230
 3407DLPE   C1A38643  11.277  22.715   3.248
 3407DLPE   D2A38644  11.004  22.715   3.647
 3407DLPE   D3A38645  10.889  22.399   3.929
 3407DLPE   C4A38646  10.797  22.368   4.426
 3407DLPE   C1B38647  11.655  22.492   3.625
 3407DLPE   D2B38648  11.355  22.597   4.046
 3407DLPE   D3B38649  11.061  22.852   4.154
 3407DLPE   C4B38650  10.585  22.995   4.309
 3408DLPE   NH338651  13.234   7.824   3.730
 3408DLPE   PO438652  12.931   7.868   3.544
 3408DLPE   GL138653  12.768   7.855   3.975
 3408DLPE   GL238654  12.855   8.115   3.911
 3408DLPE   C1A38655  12.886   7.676   4.316
 3408DLPE   D2A38656  13.106   7.839   4.752
 3408DLPE   D3A38657  13.490   7.917   4.964
 3408DLPE   C4A38658  13.868   8.169   5.171
 3408DLPE   C1B38659  12.727   8.163   4.332
 3408DLPE   D2B38660  12.599   7.915   4.785
 3408DLPE   D3B38661  12.633   7.493   4.853
 3408DLPE   C4B38662  12.522   7.331   5.309
 3409DLPE   NH338663  17.083  30.771   3.332
 3409DLPE   PO438664  17.029  31.102   3.363
 3409DLPE   GL138665  16.857  31.114   3.682
 3409DLPE   GL238666  16.616  31.287   3.577
 3409DLPE   C1A38667  17.030  31.177   4.078
 3409DLPE   D2A38668  17.424  31.060   4.440
 3409DLPE   D3A38669  17.643  30.915   4.128
 3409DLPE   C4A38670  17.973  30.584   4.267
 3409DLPE   C1B38671  16.141  31.262   3.681
 3409DLPE   D2B38672  15.955  31.692   3.626
 3409DLPE   D3B38673  16.290  31.811   3.855
 3409DLPE   C4B38674  16.466  31.365   4.014
 3410DLPE   NH338675  27.304  35.079   3.785
 3410DLPE   PO438676  26.955  35.164   3.743
 3410DLPE   GL138677  27.023  35.261   4.152
 3410DLPE   GL238678  27.155  35.461   3.987
 3410DLPE   C1A38679  27.137  34.979   4.400
 3410DLPE   D2A38680  27.474  34.587   4.471
 3410DLPE   D3A38681  27.954  34.591   4.688
 3410DLPE   C4A38682  28.150  34.380   5.066
 3410DLPE   C1B38683  27.447  35.831   4.108
 3410DLPE   D2B38684  27.608  36.264   4.254
 3410DLPE   D3B38685  27.452  36.699   4.118
 3410DLPE   C4B38686  27.109  36.427   4.262
 3411DLPE   NH338687  18.826  32.916   3.564
 3411DLPE   PO438688  18.819  32.585   3.438
 3411DLPE   GL138689  18.600  32.584   3.851
 3411DLPE   GL238690  18.709  32.277   3.854
 3411DLPE   C1A38691  18.736  32.533   4.313
 3411DLPE   D2A38692  18.715  32.789   4.724
 3411DLPE   D3A38693  18.338  32.672   4.811
 3411DLPE   C4A38694  18.134  32.552   5.227
 3411DLPE   C1B38695  19.106  32.388   3.954
 3411DLPE   D2B38696  19.240  32.811   4.171
 3411DLPE   D3B38697  19.270  32.789   4.648
 3411DLPE   C4B38698  19.141  32.963   5.129
 3412DLPE   NH338699  35.739  31.794   4.180
 3412DLPE   PO438700  35.931  31.968   3.935
 3412DLPE   GL138701  36.088  32.243   4.229
 3412DLPE   GL238702  36.095  31.985   4.396
 3412DLPE   C1A38703  35.998  32.524   4.498
 3412DLPE   D2A38704  35.842  32.609   4.963
 3412DLPE   D3A38705  35.647  32.229   5.179
 3412DLPE   C4A38706  35.856  31.797   5.210
 3412DLPE   C1B38707  35.860  32.072   4.719
 3412DLPE   D2B38708  35.432  32.347   4.722
 3412DLPE   D3B38709  35.324  32.706   4.876
 3412DLPE   C4B38710  35.002  32.892   4.601
 3413DLPE   NH338711  12.512  24.889   3.209
 3413DLPE   PO438712  12.863  24.990   3.325
 3413DLPE   GL138713  13.081  25.047   3.697
 3413DLPE   GL238714  12.892  24.892   3.764
 3413DLPE   C1A38715  13.288  24.757   3.918
 3413DLPE   D2A38716  13.578  24.472   4.223
 3413DLPE   D3A38717  13.219  24.254   4.330
 3413DLPE   C4A38718  12.934  24.477   4.030
 3413DLPE   C1B38719  12.900  24.994   4.159
 3413DLPE   D2B38720  12.875  24.648   4.505
 3413DLPE   D3B38721  12.704  24.219   4.397
 3413DLPE   C4B38722  12.210  24.025   4.283
 3414DLPE   NH338723   7.014  20.192   3.022
 3414DLPE   PO438724   7.104  19.887   3.182
 3414DLPE   GL138725   7.121  19.899   3.532
 3414DLPE   GL238726   6.813  19.734   3.517
 3414DLPE   C1A38727   7.250  19.867   3.888
 3414DLPE   D2A38728   7.185  19.940   4.377
 3414DLPE   D3A38729   7.008  20.212   4.608
 3414DLPE   C4A38730   7.018  20.134   5.039
 3414DLPE   C1B38731   6.883  19.513   3.914
 3414DLPE   D2B38732   6.851  19.545   4.400
 3414DLPE   D3B38733   6.867  19.134   4.597
 3414DLPE   C4B38734   7.031  19.198   5.056
 3415DLPE   NH338735   4.432  13.931   3.577
 3415DLPE   PO438736   4.605  13.793   3.831
 3415DLPE   GL138737   4.426  13.635   4.182
 3415DLPE   GL238738   4.432  13.858   4.299
 3415DLPE   C1A38739   4.586  13.307   4.457
 3415DLPE   D2A38740   4.795  13.354   4.898
 3415DLPE   D3A38741   4.635  12.910   5.019
 3415DLPE   C4A38742   4.604  12.849   4.530
 3415DLPE   C1B38743   4.452  13.904   4.755
 3415DLPE   D2B38744   4.483  13.989   5.259
 3415DLPE   D3B38745   4.439  14.208   5.656
 3415DLPE   C4B38746   4.652  14.313   6.058
 3416DLPE   NH338747  14.456   9.853   3.581
 3416DLPE   PO438748  14.758   9.965   3.592
 3416DLPE   GL138749  14.663  10.044   3.989
 3416DLPE   GL238750  14.476  10.238   3.861
 3416DLPE   C1A38751  14.534   9.700   4.205
 3416DLPE   D2A38752  14.290   9.501   4.612
 3416DLPE   D3A38753  14.246   9.640   5.026
 3416DLPE   C4A38754  14.577   9.611   5.350
 3416DLPE   C1B38755  14.761  10.487   4.109
 3416DLPE   D2B38756  14.660  10.783   4.522
 3416DLPE   D3B38757  14.812  10.834   4.908
 3416DLPE   C4B38758  14.498  10.952   5.223
 3417DLPE   NH338759  19.100  14.605   3.345
 3417DLPE   PO438760  18.773  14.623   3.464
 3417DLPE   GL138761  18.761  14.359   3.765
 3417DLPE   GL238762  18.777  14.457   3.979
 3417DLPE   C1A38763  18.632  13.943   3.693
 3417DLPE   D2A38764  18.703  13.518   4.050
 3417DLPE   D3A38765  18.826  13.239   4.411
 3417DLPE   C4A38766  19.123  13.005   4.170
 3417DLPE   C1B38767  18.679  14.888   4.083
 3417DLPE   D2B38768  18.716  15.302   4.363
 3417DLPE   D3B38769  18.493  15.329   4.737
 3417DLPE   C4B38770  18.414  14.921   5.071
 3418DLPE   NH338771   3.557  27.611   3.592
 3418DLPE   PO438772   3.496  27.269   3.680
 3418DLPE   GL138773   3.358  27.107   4.016
 3418DLPE   GL238774   3.477  27.375   4.110
 3418DLPE   C1A38775   3.302  26.878   4.384
 3418DLPE   D2A38776   3.284  26.805   4.807
 3418DLPE   D3A38777   3.136  26.597   5.222
 3418DLPE   C4A38778   3.185  26.527   5.639
 3418DLPE   C1B38779   3.533  27.346   4.501
 3418DLPE   D2B38780   3.495  27.209   4.962
 3418DLPE   D3B38781   3.568  27.230   5.427
 3418DLPE   C4B38782   3.316  26.999   5.744
 3419DLPE   NH338783   4.427   7.330   3.574
 3419DLPE   PO438784   4.654   7.580   3.708
 3419DLPE   GL138785   4.681   7.335   3.974
 3419DLPE   GL238786   4.947   7.375   4.162
 3419DLPE   C1A38787   4.344   7.129   4.210
 3419DLPE   D2A38788   4.119   6.993   4.649
 3419DLPE   D3A38789   4.501   7.317   4.704
 3419DLPE   C4A38790   4.049   7.543   4.796
 3419DLPE   C1B38791   4.928   7.074   4.450
 3419DLPE   D2B38792   4.838   6.626   4.615
 3419DLPE   D3B38793   5.054   6.582   4.972
 3419DLPE   C4B38794   4.986   6.366   5.343
 3420DLPE   NH338795  28.470   5.596   3.468
 3420DLPE   PO438796  28.819   5.660   3.450
 3420DLPE   GL138797  28.737   5.788   3.778
 3420DLPE   GL238798  28.571   6.030   3.747
 3420DLPE   C1A38799  28.778   5.632   4.166
 3420DLPE   D2A38800  28.939   5.451   4.628
 3420DLPE   D3A38801  29.021   5.061   4.942
 3420DLPE   C4A38802  29.261   5.084   5.327
 3420DLPE   C1B38803  28.375   5.956   4.106
 3420DLPE   D2B38804  28.656   5.909   4.582
 3420DLPE   D3B38805  28.518   5.979   5.003
 3420DLPE   C4B38806  28.058   5.989   5.175
 3421DLPE   NH338807  10.789  23.610   2.310
 3421DLPE   PO438808  10.741  23.855   2.556
 3421DLPE   GL138809  10.791  23.716   2.958
 3421DLPE   GL238810  10.992  23.464   2.975
 3421DLPE   C1A38811  10.933  23.903   3.251
 3421DLPE   D2A38812  10.982  24.260   3.654
 3421DLPE   D3A38813  10.831  24.360   4.083
 3421DLPE   C4A38814  10.790  24.221   4.561
 3421DLPE   C1B38815  11.159  23.316   3.355
 3421DLPE   D2B38816  11.236  23.222   3.783
 3421DLPE   D3B38817  11.022  23.372   4.176
 3421DLPE   C4B38818  11.117  23.691   4.559
 3422DLPE   NH338819   1.644  31.441   3.384
 3422DLPE   PO438820   1.336  31.354   3.572
 3422DLPE   GL138821   1.291  31.446   3.950
 3422DLPE   GL238822   1.242  31.781   3.928
 3422DLPE   C1A38823   1.196  31.121   4.270
 3422DLPE   D2A38824   1.039  30.634   4.208
 3422DLPE   D3A38825   0.588  30.622   4.203
 3422DLPE   C4A38826   0.578  30.792   4.623
 3422DLPE   C1B38827   1.147  31.877   4.323
 3422DLPE   D2B38828   1.012  32.243   4.585
 3422DLPE   D3B38829   0.781  32.546   4.759
 3422DLPE   C4B38830   0.316  32.522   5.017
 3423DLPE   NH338831  11.200  20.793   2.870
 3423DLPE   PO438832  10.996  21.071   2.876
 3423DLPE   GL138833  10.955  21.359   3.183
 3423DLPE   GL238834  11.009  21.106   3.376
 3423DLPE   C1A38835  10.557  21.349   3.424
 3423DLPE   D2A38836  10.631  21.493   3.867
 3423DLPE   D3A38837  10.601  21.398   4.366
 3423DLPE   C4A38838  10.491  21.000   4.225
 3423DLPE   C1B38839  11.346  21.217   3.633
 3423DLPE   D2B38840  11.603  21.492   3.993
 3423DLPE   D3B38841  11.724  21.596   4.364
 3423DLPE   C4B38842  11.234  21.725   4.473
 3424DLPE   NH338843  28.523  31.243   2.842
 3424DLPE   PO438844  28.286  31.007   2.736
 3424DLPE   GL138845  27.890  31.148   2.958
 3424DLPE   GL238846  27.898  30.849   3.061
 3424DLPE   C1A38847  27.777  31.257   3.363
 3424DLPE   D2A38848  27.742  31.027   3.787
 3424DLPE   D3A38849  27.771  31.184   4.199
 3424DLPE   C4A38850  27.477  31.020   4.564
 3424DLPE   C1B38851  27.547  30.736   3.312
 3424DLPE   D2B38852  27.335  30.537   3.762
 3424DLPE   D3B38853  27.229  30.907   3.980
 3424DLPE   C4B38854  27.271  31.423   3.925
 3425DLPE   NH338855   1.821  16.488   3.629
 3425DLPE   PO438856   1.850  16.816   3.525
 3425DLPE   GL138857   1.995  16.885   3.947
 3425DLPE   GL238858   2.157  17.120   3.815
 3425DLPE   C1A38859   1.827  16.991   4.332
 3425DLPE   D2A38860   1.669  16.952   4.746
 3425DLPE   D3A38861   1.708  16.539   4.890
 3425DLPE   C4A38862   1.661  16.234   4.526
 3425DLPE   C1B38863   2.203  17.327   4.179
 3425DLPE   D2B38864   2.142  17.727   4.390
 3425DLPE   D3B38865   2.116  17.736   4.880
 3425DLPE   C4B38866   2.378  17.846   5.262
 3426DLPE   NH338867   5.039   3.028   3.177
 3426DLPE   PO438868   5.219   3.256   3.287
 3426DLPE   GL138869   5.172   3.276   3.643
 3426DLPE   GL238870   5.247   3.091   3.763
 3426DLPE   C1A38871   5.215   3.531   4.067
 3426DLPE   D2A38872   5.048   3.429   4.479
 3426DLPE   D3A38873   5.114   3.836   4.650
 3426DLPE   C4A38874   5.110   4.229   4.293
 3426DLPE   C1B38875   4.982   3.082   4.140
 3426DLPE   D2B38876   4.547   2.809   4.072
 3426DLPE   D3B38877   4.458   2.664   4.532
 3426DLPE   C4B38878   4.773   2.608   4.886
 3427DLPE   NH338879  35.824   9.419   3.342
 3427DLPE   PO438880  35.773   9.757   3.347
 3427DLPE   GL138881  35.597   9.763   3.728
 3427DLPE   GL238882  35.666   9.493   3.775
 3427DLPE   C1A38883  35.822   9.998   4.054
 3427DLPE   D2A38884  35.608   9.834   4.504
 3427DLPE   D3A38885  35.339   9.676   4.786
 3427DLPE   C4A38886  35.058   9.772   5.155
 3427DLPE   C1B38887  35.711   9.507   4.164
 3427DLPE   D2B38888  35.783   9.267   4.654
 3427DLPE   D3B38889  35.939   9.493   5.030
 3427DLPE   C4B38890  35.846   9.888   5.055
 3428DLPE   NH338891  17.733  27.296   3.641
 3428DLPE   PO438892  17.547  27.541   3.488
 3428DLPE   GL138893  17.520  27.574   3.949
 3428DLPE   GL238894  17.303  27.626   3.921
 3428DLPE   C1A38895  17.730  27.200   4.188
 3428DLPE   D2A38896  17.777  27.225   4.651
 3428DLPE   D3A38897  17.964  27.440   4.976
 3428DLPE   C4A38898  17.958  27.888   5.195
 3428DLPE   C1B38899  17.121  27.660   4.369
 3428DLPE   D2B38900  16.946  27.635   4.787
 3428DLPE   D3B38901  17.071  28.031   4.895
 3428DLPE   C4B38902  16.730  28.102   5.227
 3429DLPE   NH338903  17.088  16.995   3.376
 3429DLPE   PO438904  17.389  17.197   3.388
 3429DLPE   GL138905  17.540  17.039   3.825
 3429DLPE   GL238906  17.485  17.365   3.840
 3429DLPE   C1A38907  17.232  16.713   3.922
 3429DLPE   D2A38908  17.032  16.256   3.974
 3429DLPE   D3A38909  17.121  16.115   4.384
 3429DLPE   C4A38910  16.829  15.933   4.609
 3429DLPE   C1B38911  17.308  17.661   4.035
 3429DLPE   D2B38912  17.228  17.622   4.516
 3429DLPE   D3B38913  17.120  17.460   4.891
 3429DLPE   C4B38914  17.540  17.227   5.077
 3430DLPE   NH338915  20.229  27.786   3.445
 3430DLPE   PO438916  20.351  28.118   3.420
 3430DLPE   GL138917  20.507  27.972   3.780
 3430DLPE   GL238918  20.695  27.860   3.817
 3430DLPE   C1A38919  20.378  27.882   4.175
 3430DLPE   D2A38920  20.127  27.629   4.478
 3430DLPE   D3A38921  20.272  27.833   4.781
 3430DLPE   C4A38922  20.652  27.700   5.113
 3430DLPE   C1B38923  20.873  27.935   4.228
 3430DLPE   D2B38924  21.084  27.610   4.583
 3430DLPE   D3B38925  21.107  27.779   4.991
 3430DLPE   C4B38926  21.013  27.836   5.455
 3431DLPE   NH338927  24.001  32.440   3.502
 3431DLPE   PO438928  24.074  32.746   3.585
 3431DLPE   GL138929  24.021  32.880   3.887
 3431DLPE   GL238930  23.999  32.635   4.040
 3431DLPE   C1A38931  24.125  33.205   4.190
 3431DLPE   D2A38932  24.233  33.481   4.590
 3431DLPE   D3A38933  23.988  33.383   4.975
 3431DLPE   C4A38934  24.485  33.472   5.102
 3431DLPE   C1B38935  24.060  32.706   4.417
 3431DLPE   D2B38936  24.065  32.527   4.917
 3431DLPE   D3B38937  23.823  32.722   5.214
 3431DLPE   C4B38938  23.608  32.482   5.605
 3432DLPE   NH338939  24.650  18.840   3.521
 3432DLPE   PO438940  24.429  18.641   3.675
 3432DLPE   GL138941  24.675  18.720   4.048
 3432DLPE   GL238942  24.711  18.461   4.186
 3432DLPE   C1A38943  24.703  19.021   4.343
 3432DLPE   D2A38944  24.818  19.439   4.482
 3432DLPE   D3A38945  24.802  19.367   4.928
 3432DLPE   C4A38946  24.414  19.124   5.154
 3432DLPE   C1B38947  24.992  18.642   4.521
 3432DLPE   D2B38948  25.114  19.108   4.674
 3432DLPE   D3B38949  25.396  19.358   4.896
 3432DLPE   C4B38950  25.252  19.683   4.551
 3433DLPE   NH338951   7.452   1.404   3.333
 3433DLPE   PO438952   7.545   1.100   3.436
 3433DLPE   GL138953   7.752   0.916   3.779
 3433DLPE   GL238954   7.967   1.013   3.698
 3433DLPE   C1A38955   7.715   0.877   4.205
 3433DLPE   D2A38956   8.030   0.766   4.553
 3433DLPE   D3A38957   8.209   0.707   4.958
 3433DLPE   C4A38958   8.420   1.104   5.209
 3433DLPE   C1B38959   8.173   1.024   4.145
 3433DLPE   D2B38960   7.907   1.345   4.428
 3433DLPE   D3B38961   7.695   1.123   4.743
 3433DLPE   C4B38962   7.301   1.146   4.946
 3434DLPE   NH338963   9.411  23.212   2.465
 3434DLPE   PO438964   9.551  23.534   2.486
 3434DLPE   GL138965   9.894  23.683   2.763
 3434DLPE   GL238966   9.657  23.901   2.935
 3434DLPE   C1A38967  10.035  23.606   3.175
 3434DLPE   D2A38968  10.266  23.589   3.646
 3434DLPE   D3A38969  10.658  23.857   3.652
 3434DLPE   C4A38970  11.074  23.718   3.650
 3434DLPE   C1B38971   9.493  23.587   3.191
 3434DLPE   D2B38972   9.004  23.385   3.284
 3434DLPE   D3B38973   8.743  23.528   3.630
 3434DLPE   C4B38974   8.270  23.381   3.782
 3435DLPE   NH338975  21.396  30.543   3.624
 3435DLPE   PO438976  21.243  30.218   3.585
 3435DLPE   GL138977  21.348  29.953   3.945
 3435DLPE   GL238978  21.235  30.225   4.050
 3435DLPE   C1A38979  21.537  29.775   4.358
 3435DLPE   D2A38980  21.832  29.479   4.622
 3435DLPE   D3A38981  21.834  29.093   4.747
 3435DLPE   C4A38982  21.972  28.811   5.154
 3435DLPE   C1B38983  21.225  30.582   4.364
 3435DLPE   D2B38984  21.253  30.879   4.756
 3435DLPE   D3B38985  21.113  30.916   5.217
 3435DLPE   C4B38986  20.689  30.989   5.338
 3436DLPE   NH338987  30.045   1.989   2.938
 3436DLPE   PO438988  30.050   1.668   3.100
 3436DLPE   GL138989  30.222   1.698   3.473
 3436DLPE   GL238990  30.002   1.538   3.647
 3436DLPE   C1A38991  30.074   1.975   3.801
 3436DLPE   D2A38992  29.759   2.094   4.135
 3436DLPE   D3A38993  29.622   2.012   4.617
 3436DLPE   C4A38994  29.916   1.931   4.935
 3436DLPE   C1B38995  30.224   1.405   4.016
 3436DLPE   D2B38996  30.423   1.208   4.421
 3436DLPE   D3B38997  30.729   1.247   4.737
 3436DLPE   C4B38998  30.584   1.461   5.157
 3437DLPE   NH338999   7.348   5.677   3.375
 3437DLPE   PO439000   7.536   5.921   3.510
 3437DLPE   GL139001   7.659   5.725   3.828
 3437DLPE   GL239002   7.519   5.485   3.848
 3437DLPE   C1A39003   7.587   5.966   4.157
 3437DLPE   D2A39004   7.594   6.097   4.643
 3437DLPE   D3A39005   7.755   5.876   4.987
 3437DLPE   C4A39006   7.601   5.588   5.283
 3437DLPE   C1B39007   7.548   5.448   4.282
 3437DLPE   D2B39008   7.712   5.440   4.716
 3437DLPE   D3B39009   8.064   5.259   4.564
 3437DLPE   C4B39010   8.082   5.293   4.085
 3438DLPE   NH339011  31.599  31.752   3.335
 3438DLPE   PO439012  31.351  31.546   3.447
 3438DLPE   GL139013  31.341  31.609   3.830
 3438DLPE   GL239014  31.327  31.922   3.716
 3438DLPE   C1A39015  31.285  31.425   4.162
 3438DLPE   D2A39016  30.820  31.294   4.065
 3438DLPE   D3A39017  30.724  31.453   3.624
 3438DLPE   C4A39018  30.419  31.691   3.925
 3438DLPE   C1B39019  31.309  32.181   4.110
 3438DLPE   D2B39020  31.359  32.309   4.571
 3438DLPE   D3B39021  30.946  32.361   4.745
 3438DLPE   C4B39022  30.677  32.232   4.313
 3439DLPE   NH339023  30.275  10.966   3.523
 3439DLPE   PO439024  30.359  10.610   3.574
 3439DLPE   GL139025  30.546  10.585   3.859
 3439DLPE   GL239026  30.510  10.345   4.012
 3439DLPE   C1A39027  30.514  10.854   4.131
 3439DLPE   D2A39028  30.439  10.999   4.613
 3439DLPE   D3A39029  30.538  10.940   5.079
 3439DLPE   C4A39030  30.757  10.997   5.543
 3439DLPE   C1B39031  30.556  10.417   4.368
 3439DLPE   D2B39032  30.906  10.728   4.511
 3439DLPE   D3B39033  30.832  10.367   4.821
 3439DLPE   C4B39034  30.834  10.462   5.353
 3440DLPE   NH339035  22.239  21.305   3.512
 3440DLPE   PO439036  22.378  20.995   3.458
 3440DLPE   GL139037  22.547  20.749   3.861
 3440DLPE   GL239038  22.340  20.911   3.995
 3440DLPE   C1A39039  22.870  20.835   4.154
 3440DLPE   D2A39040  23.117  20.810   4.650
 3440DLPE   D3A39041  23.097  21.188   4.608
 3440DLPE   C4A39042  23.083  21.412   4.228
 3440DLPE   C1B39043  22.482  21.076   4.422
 3440DLPE   D2B39044  22.636  21.142   4.842
 3440DLPE   D3B39045  22.591  21.387   5.210
 3440DLPE   C4B39046  22.754  21.754   5.427
 3441DLPE   NH339047  18.676  32.068   3.446
 3441DLPE   PO439048  19.013  31.950   3.460
 3441DLPE   GL139049  18.819  31.752   3.854
 3441DLPE   GL239050  18.569  31.738   3.740
 3441DLPE   C1A39051  18.914  32.012   4.252
 3441DLPE   D2A39052  18.993  31.969   4.674
 3441DLPE   D3A39053  18.850  31.862   5.074
 3441DLPE   C4A39054  18.824  31.776   5.533
 3441DLPE   C1B39055  18.323  31.451   4.073
 3441DLPE   D2B39056  17.949  31.335   4.378
 3441DLPE   D3B39057  17.949  31.050   4.660
 3441DLPE   C4B39058  18.202  30.700   4.726
 3442DLPE   NH339059  16.861  19.412   3.370
 3442DLPE   PO439060  16.730  19.613   3.604
 3442DLPE   GL139061  16.545  19.696   4.025
 3442DLPE   GL239062  16.745  19.870   3.999
 3442DLPE   C1A39063  16.429  19.715   4.412
 3442DLPE   D2A39064  16.414  19.471   4.833
 3442DLPE   D3A39065  16.230  19.422   5.201
 3442DLPE   C4A39066  16.691  19.534   5.315
 3442DLPE   C1B39067  16.929  19.867   4.401
 3442DLPE   D2B39068  16.829  19.736   4.883
 3442DLPE   D3B39069  16.426  19.936   5.140
 3442DLPE   C4B39070  15.894  19.874   5.039
 3443DLPE   NH339071  27.245  12.354   3.121
 3443DLPE   PO439072  26.944  12.148   3.118
 3443DLPE   GL139073  26.764  12.178   3.471
 3443DLPE   GL239074  26.654  11.954   3.504
 3443DLPE   C1A39075  26.691  12.252   3.887
 3443DLPE   D2A39076  26.655  12.084   4.353
 3443DLPE   D3A39077  26.242  12.178   4.496
 3443DLPE   C4A39078  26.089  11.805   4.632
 3443DLPE   C1B39079  26.720  11.727   3.832
 3443DLPE   D2B39080  26.632  11.550   4.301
 3443DLPE   D3B39081  26.566  11.655   4.648
 3443DLPE   C4B39082  26.554  12.059   4.926
 3444DLPE   NH339083  26.141  20.293   2.981
 3444DLPE   PO439084  26.455  20.214   3.040
 3444DLPE   GL139085  26.443  19.953   3.418
 3444DLPE   GL239086  26.732  20.067   3.391
 3444DLPE   C1A39087  26.309  19.957   3.785
 3444DLPE   D2A39088  25.971  19.847   4.161
 3444DLPE   D3A39089  25.804  19.862   4.508
 3444DLPE   C4A39090  25.918  19.617   4.921
 3444DLPE   C1B39091  26.818  20.257   3.759
 3444DLPE   D2B39092  26.922  20.178   4.244
 3444DLPE   D3B39093  26.717  20.488   4.522
 3444DLPE   C4B39094  26.952  20.315   4.870
 3445DLPE   NH339095   1.931  25.691   3.556
 3445DLPE   PO439096   2.080  25.960   3.633
 3445DLPE   GL139097   2.017  26.159   4.093
 3445DLPE   GL239098   1.760  26.156   4.033
 3445DLPE   C1A39099   2.267  26.213   4.366
 3445DLPE   D2A39100   2.168  25.831   4.636
 3445DLPE   D3A39101   2.303  25.675   4.975
 3445DLPE   C4A39102   2.517  25.867   5.356
 3445DLPE   C1B39103   1.638  26.182   4.398
 3445DLPE   D2B39104   1.790  26.288   4.828
 3445DLPE   D3B39105   1.879  26.330   5.256
 3445DLPE   C4B39106   1.596  26.635   5.475
 3446DLPE   NH339107  11.000   3.760   2.713
 3446DLPE   PO439108  10.885   3.966   2.983
 3446DLPE   GL139109  10.919   3.798   3.349
 3446DLPE   GL239110  10.885   4.053   3.445
 3446DLPE   C1A39111  10.922   3.444   3.564
 3446DLPE   D2A39112  11.208   3.190   3.882
 3446DLPE   D3A39113  11.335   3.062   4.323
 3446DLPE   C4A39114  10.900   3.100   4.268
 3446DLPE   C1B39115  11.007   4.235   3.779
 3446DLPE   D2B39116  11.321   4.194   4.142
 3446DLPE   D3B39117  11.516   3.885   4.411
 3446DLPE   C4B39118  11.336   4.009   4.810
 3447DLPE   NH339119  13.447  21.598   3.037
 3447DLPE   PO439120  13.538  21.831   3.236
 3447DLPE   GL139121  13.819  21.784   3.552
 3447DLPE   GL239122  13.738  21.497   3.470
 3447DLPE   C1A39123  13.799  22.048   3.865
 3447DLPE   D2A39124  13.744  22.310   4.233
 3447DLPE   D3A39125  13.759  22.335   4.702
 3447DLPE   C4A39126  13.574  21.890   4.789
 3447DLPE   C1B39127  13.405  21.472   3.766
 3447DLPE   D2B39128  13.023  21.782   3.887
 3447DLPE   D3B39129  13.314  22.159   3.876
 3447DLPE   C4B39130  13.292  22.264   4.302
 3448DLPE   NH339131  28.708  13.035   3.619
 3448DLPE   PO439132  28.973  13.190   3.846
 3448DLPE   GL139133  28.773  13.008   4.210
 3448DLPE   GL239134  28.506  12.966   4.075
 3448DLPE   C1A39135  29.120  12.907   4.428
 3448DLPE   D2A39136  29.597  12.740   4.512
 3448DLPE   D3A39137  29.680  12.552   4.887
 3448DLPE   C4A39138  29.663  12.250   5.267
 3448DLPE   C1B39139  28.059  12.849   4.259
 3448DLPE   D2B39140  27.744  12.535   4.453
 3448DLPE   D3B39141  27.353  12.474   4.314
 3448DLPE   C4B39142  27.282  12.482   4.796
 3449DLPE   NH339143  30.140  15.581   3.749
 3449DLPE   PO439144  30.201  15.318   3.576
 3449DLPE   GL139145  30.476  15.289   3.741
 3449DLPE   GL239146  30.640  15.540   3.763
 3449DLPE   C1A39147  30.524  15.258   4.179
 3449DLPE   D2A39148  30.626  15.060   4.661
 3449DLPE   D3A39149  30.808  15.346   4.954
 3449DLPE   C4A39150  30.851  15.463   5.337
 3449DLPE   C1B39151  30.683  15.779   4.144
 3449DLPE   D2B39152  30.765  15.802   4.592
 3449DLPE   D3B39153  30.792  15.905   5.000
 3449DLPE   C4B39154  30.872  16.232   5.361
 3450DLPE   NH339155  20.030   7.771   3.374
 3450DLPE   PO439156  19.729   7.557   3.276
 3450DLPE   GL139157  19.691   7.450   3.656
 3450DLPE   GL239158  19.779   7.738   3.806
 3450DLPE   C1A39159  19.436   7.143   3.799
 3450DLPE   D2A39160  19.700   6.858   4.172
 3450DLPE   D3A39161  19.762   6.458   4.042
 3450DLPE   C4A39162  20.072   6.101   3.896
 3450DLPE   C1B39163  20.207   7.677   4.009
 3450DLPE   D2B39164  20.579   7.563   4.253
 3450DLPE   D3B39165  20.612   7.695   4.682
 3450DLPE   C4B39166  20.760   7.928   5.064
 3451DLPE   NH339167  17.462  26.993   3.326
 3451DLPE   PO439168  17.140  27.152   3.279
 3451DLPE   GL139169  17.255  27.270   3.680
 3451DLPE   GL239170  17.406  27.033   3.769
 3451DLPE   C1A39171  16.903  27.318   3.858
 3451DLPE   D2A39172  16.727  27.308   4.332
 3451DLPE   D3A39173  16.798  27.027   4.698
 3451DLPE   C4A39174  16.936  27.238   5.100
 3451DLPE   C1B39175  17.257  27.154   4.138
 3451DLPE   D2B39176  17.248  27.211   4.628
 3451DLPE   D3B39177  17.425  27.339   5.013
 3451DLPE   C4B39178  17.611  27.509   5.404
 3452DLPE   NH339179  16.518  13.852   3.384
 3452DLPE   PO439180  16.180  13.932   3.433
 3452DLPE   GL139181  16.306  13.819   3.779
 3452DLPE   GL239182  16.547  13.684   3.818
 3452DLPE   C1A39183  16.093  13.899   4.145
 3452DLPE   D2A39184  16.206  13.581   4.512
 3452DLPE   D3A39185  16.120  13.324   4.875
 3452DLPE   C4A39186  15.621  13.525   5.023
 3452DLPE   C1B39187  16.616  13.774   4.270
 3452DLPE   D2B39188  16.953  14.053   4.298
 3452DLPE   D3B39189  17.190  13.895   4.617
 3452DLPE   C4B39190  17.599  14.122   4.559
 3453DLPE   NH339191   0.874  31.592   3.607
 3453DLPE   PO439192   0.800  31.949   3.724
 3453DLPE   GL139193   0.462  32.101   4.046
 3453DLPE   GL239194   0.682  31.894   4.195
 3453DLPE   C1A39195   0.479  32.222   4.527
 3453DLPE   D2A39196   0.346  32.032   4.958
 3453DLPE   D3A39197   0.212  32.104   5.351
 3453DLPE   C4A39198   0.093  32.539   5.457
 3453DLPE   C1B39199   0.698  31.752   4.674
 3453DLPE   D2B39200   0.604  31.522   5.125
 3453DLPE   D3B39201   0.914  31.416   5.406
 3453DLPE   C4B39202   1.364  31.492   5.342
 3454DLPE   NH339203   1.397  28.147   3.040
 3454DLPE   PO439204   1.503  28.068   3.356
 3454DLPE   GL139205   1.576  28.155   3.762
 3454DLPE   GL239206   1.284  28.016   3.739
 3454DLPE   C1A39207   1.504  28.408   4.166
 3454DLPE   D2A39208   1.138  28.758   4.330
 3454DLPE   D3A39209   0.973  28.946   4.772
 3454DLPE   C4A39210   0.779  29.368   4.770
 3454DLPE   C1B39211   1.194  28.045   4.169
 3454DLPE   D2B39212   0.903  27.755   4.402
 3454DLPE   D3B39213   0.457  27.871   4.556
 3454DLPE   C4B39214   0.299  27.489   4.327
 3455DLPE   NH339215   0.404   3.553   3.305
 3455DLPE   PO439216   0.422   3.875   3.249
 3455DLPE   GL139217   0.559   4.102   3.561
 3455DLPE   GL239218   0.788   4.035   3.631
 3455DLPE   C1A39219   0.229   4.262   3.853
 3455DLPE   D2A39220  -0.044   4.422   4.271
 3455DLPE   D3A39221   0.020   4.318   4.679
 3455DLPE   C4A39222   0.006   4.382   5.120
 3455DLPE   C1B39223   0.760   4.065   4.065
 3455DLPE   D2B39224   0.279   3.931   4.303
 3455DLPE   D3B39225   0.271   3.918   4.732
 3455DLPE   C4B39226   0.059   3.859   5.193
 3456DLPE   NH339227   7.671  31.398   3.265
 3456DLPE   PO439228   7.927  31.196   3.411
 3456DLPE   GL139229   7.716  31.315   3.801
 3456DLPE   GL239230   7.983  31.499   3.881
 3456DLPE   C1A39231   7.647  31.117   4.107
 3456DLPE   D2A39232   7.560  30.844   4.539
 3456DLPE   D3A39233   7.200  30.981   4.849
 3456DLPE   C4A39234   7.354  31.199   5.224
 3456DLPE   C1B39235   8.113  31.275   4.230
 3456DLPE   D2B39236   8.073  30.980   4.618
 3456DLPE   D3B39237   8.237  30.824   5.036
 3456DLPE   C4B39238   8.284  30.315   5.033
 3457DLPE   NH339239  33.082  35.373   3.234
 3457DLPE   PO439240  32.827  35.620   3.261
 3457DLPE   GL139241  32.782  35.391   3.626
 3457DLPE   GL239242  33.062  35.471   3.675
 3457DLPE   C1A39243  32.416  35.338   3.938
 3457DLPE   D2A39244  32.278  35.667   4.375
 3457DLPE   D3A39245  32.368  35.587   4.800
 3457DLPE   C4A39246  32.149  35.222   4.691
 3457DLPE   C1B39247  32.976  35.465   4.102
 3457DLPE   D2B39248  32.767  35.346   4.564
 3457DLPE   D3B39249  33.038  35.402   4.918
 3457DLPE   C4B39250  32.872  35.450   5.328
 3458DLPE   NH339251   5.277  27.004   3.174
 3458DLPE   PO439252   5.272  26.694   3.339
 3458DLPE   GL139253   5.297  27.019   3.634
 3458DLPE   GL239254   5.505  26.864   3.781
 3458DLPE   C1A39255   4.974  27.126   3.884
 3458DLPE   D2A39256   4.508  26.958   3.961
 3458DLPE   D3A39257   4.314  27.402   4.053
 3458DLPE   C4A39258   4.707  27.724   4.015
 3458DLPE   C1B39259   5.589  27.005   4.223
 3458DLPE   D2B39260   5.881  26.743   4.561
 3458DLPE   D3B39261   6.061  26.683   4.904
 3458DLPE   C4B39262   6.326  26.941   5.165
 3459DLPE   NH339263  24.233  16.974   3.789
 3459DLPE   PO439264  24.286  16.676   3.938
 3459DLPE   GL139265  24.527  16.909   4.170
 3459DLPE   GL239266  24.797  16.868   4.018
 3459DLPE   C1A39267  24.610  16.948   4.570
 3459DLPE   D2A39268  24.701  17.136   5.051
 3459DLPE   D3A39269  24.890  17.312   5.466
 3459DLPE   C4A39270  25.048  17.219   5.972
 3459DLPE   C1B39271  24.955  17.125   4.307
 3459DLPE   D2B39272  24.921  17.386   4.677
 3459DLPE   D3B39273  25.256  17.088   4.826
 3459DLPE   C4B39274  25.223  16.933   5.278
 3460DLPE   NH339275  28.855  15.205   3.238
 3460DLPE   PO439276  28.587  15.106   3.435
 3460DLPE   GL139277  28.535  15.228   3.805
 3460DLPE   GL239278  28.325  15.442   3.678
 3460DLPE   C1A39279  28.340  15.119   4.186
 3460DLPE   D2A39280  27.899  15.300   4.324
 3460DLPE   D3A39281  28.015  15.376   4.759
 3460DLPE   C4A39282  28.103  15.560   5.222
 3460DLPE   C1B39283  27.934  15.424   3.853
 3460DLPE   D2B39284  27.533  15.514   4.087
 3460DLPE   D3B39285  27.488  15.509   4.541
 3460DLPE   C4B39286  27.622  15.440   5.038
 3461DLPE   NH339287  35.490  13.895   3.391
 3461DLPE   PO439288  35.640  13.649   3.638
 3461DLPE   GL139289  35.303  13.945   3.808
 3461DLPE   GL239290  35.165  13.713   3.854
 3461DLPE   C1A39291  35.267  14.366   3.989
 3461DLPE   D2A39292  35.412  14.705   4.359
 3461DLPE   D3A39293  35.573  14.645   4.774
 3461DLPE   C4A39294  35.713  14.288   5.087
 3461DLPE   C1B39295  35.192  13.511   4.320
 3461DLPE   D2B39296  35.482  13.209   4.567
 3461DLPE   D3B39297  35.545  13.257   4.977
 3461DLPE   C4B39298  35.406  13.440   5.459
 3462DLPE   NH339299  22.484  30.506   2.976
 3462DLPE   PO439300  22.686  30.706   3.091
 3462DLPE   GL139301  22.631  30.805   3.455
 3462DLPE   GL239302  22.550  30.530   3.514
 3462DLPE   C1A39303  22.534  31.129   3.711
 3462DLPE   D2A39304  22.599  31.359   4.141
 3462DLPE   D3A39305  22.682  31.231   4.547
 3462DLPE   C4A39306  22.795  31.488   4.994
 3462DLPE   C1B39307  22.336  30.366   3.883
 3462DLPE   D2B39308  22.078  30.439   4.257
 3462DLPE   D3B39309  22.442  30.180   4.355
 3462DLPE   C4B39310  22.839  30.151   4.630
 3463DLPE   NH339311  19.187  35.446   3.114
 3463DLPE   PO439312  19.419  35.578   3.329
 3463DLPE   GL139313  19.144  35.270   3.680
 3463DLPE   GL239314  19.126  35.535   3.736
 3463DLPE   C1A39315  18.926  35.032   4.022
 3463DLPE   D2A39316  19.158  34.597   4.114
 3463DLPE   D3A39317  19.645  34.665   4.004
 3463DLPE   C4A39318  19.978  34.290   4.123
 3463DLPE   C1B39319  19.119  35.465   4.222
 3463DLPE   D2B39320  18.953  35.525   4.706
 3463DLPE   D3B39321  18.812  35.448   5.113
 3463DLPE   C4B39322  19.074  35.298   5.470
 3464DLPE   NH339323   2.951   3.672   3.369
 3464DLPE   PO439324   3.049   3.415   3.199
 3464DLPE   GL139325   3.169   3.245   3.591
 3464DLPE   GL239326   2.898   3.400   3.755
 3464DLPE   C1A39327   3.314   2.839   3.871
 3464DLPE   D2A39328   3.101   2.411   3.954
 3464DLPE   D3A39329   3.252   2.032   4.170
 3464DLPE   C4A39330   3.704   2.000   4.417
 3464DLPE   C1B39331   3.070   3.251   4.118
 3464DLPE   D2B39332   3.055   2.875   4.382
 3464DLPE   D3B39333   3.265   2.740   4.767
 3464DLPE   C4B39334   3.445   2.674   5.180
 3465DLPE   NH339335  26.133   8.147   3.192
 3465DLPE   PO439336  25.949   7.977   3.460
 3465DLPE   GL139337  26.129   8.020   3.840
 3465DLPE   GL239338  26.082   7.824   3.929
 3465DLPE   C1A39339  26.300   8.041   4.292
 3465DLPE   D2A39340  26.355   8.074   4.824
 3465DLPE   D3A39341  26.454   7.726   5.088
 3465DLPE   C4A39342  26.511   7.270   5.206
 3465DLPE   C1B39343  26.076   7.562   4.256
 3465DLPE   D2B39344  26.223   7.438   4.704
 3465DLPE   D3B39345  26.665   7.510   4.634
 3465DLPE   C4B39346  27.048   7.639   4.968
 3466DLPE   NH339347  28.416  33.992   2.796
 3466DLPE   PO439348  28.197  33.721   2.874
 3466DLPE   GL139349  28.202  33.448   3.228
 3466DLPE   GL239350  28.019  33.651   3.373
 3466DLPE   C1A39351  28.503  33.417   3.555
 3466DLPE   D2A39352  28.774  33.564   3.993
 3466DLPE   D3A39353  28.730  33.940   4.295
 3466DLPE   C4A39354  28.370  33.789   4.614
 3466DLPE   C1B39355  27.701  33.474   3.452
 3466DLPE   D2B39356  27.530  33.368   3.861
 3466DLPE   D3B39357  27.474  33.323   4.302
 3466DLPE   C4B39358  27.752  33.067   4.563
 3467DLPE   NH339359  35.834  28.746   3.146
 3467DLPE   PO439360  36.162  28.782   3.280
 3467DLPE   GL139361  36.154  28.770   3.685
 3467DLPE   GL239362  36.191  29.019   3.829
 3467DLPE   C1A39363  36.217  28.524   4.040
 3467DLPE   D2A39364  36.259  28.341   4.442
 3467DLPE   D3A39365  36.150  28.316   4.835
 3467DLPE   C4A39366  36.182  28.741   5.048
 3467DLPE   C1B39367  35.937  29.040   4.087
 3467DLPE   D2B39368  35.943  28.728   4.436
 3467DLPE   D3B39369  35.699  28.605   4.792
 3467DLPE   C4B39370  35.594  28.490   5.181
 3468DLPE   NH339371  10.326  16.235   3.523
 3468DLPE   PO439372  10.514  16.033   3.616
 3468DLPE   GL139373  10.634  15.968   4.120
 3468DLPE   GL239374  10.547  15.673   4.027
 3468DLPE   C1A39375  10.466  15.875   4.458
 3468DLPE   D2A39376  10.336  15.793   4.878
 3468DLPE   D3A39377  10.521  15.942   5.226
 3468DLPE   C4A39378  10.617  16.281   5.520
 3468DLPE   C1B39379  10.473  15.354   4.353
 3468DLPE   D2B39380  10.298  15.284   4.857
 3468DLPE   D3B39381  10.271  14.853   5.066
 3468DLPE   C4B39382  10.615  14.510   5.046
 3469DLPE   NH339383  22.249  28.470   3.069
 3469DLPE   PO439384  22.132  28.656   3.342
 3469DLPE   GL139385  22.292  28.737   3.736
 3469DLPE   GL239386  22.002  28.640   3.842
 3469DLPE   C1A39387  22.550  28.491   4.032
 3469DLPE   D2A39388  22.961  28.330   3.884
 3469DLPE   D3A39389  23.259  28.058   3.664
 3469DLPE   C4A39390  23.688  27.956   3.569
 3469DLPE   C1B39391  22.135  28.691   4.285
 3469DLPE   D2B39392  22.274  28.891   4.771
 3469DLPE   D3B39393  22.358  29.223   5.046
 3469DLPE   C4B39394  21.914  29.319   5.168
 3470DLPE   NH339395  22.797  12.597   3.543
 3470DLPE   PO439396  22.863  12.950   3.472
 3470DLPE   GL139397  23.074  12.922   3.800
 3470DLPE   GL239398  23.327  12.817   3.759
 3470DLPE   C1A39399  22.735  12.792   4.125
 3470DLPE   D2A39400  22.235  12.720   4.143
 3470DLPE   D3A39401  22.186  12.638   4.569
 3470DLPE   C4A39402  21.880  12.213   4.724
 3470DLPE   C1B39403  23.190  12.521   4.021
 3470DLPE   D2B39404  23.227  12.078   4.373
 3470DLPE   D3B39405  23.582  11.967   4.627
 3470DLPE   C4B39406  24.034  11.969   4.761
 3471DLPE   NH339407  20.108  12.748   3.696
 3471DLPE   PO439408  19.796  12.873   3.563
 3471DLPE   GL139409  19.721  12.904   3.943
 3471DLPE   GL239410  19.690  13.160   4.006
 3471DLPE   C1A39411  19.574  12.782   4.288
 3471DLPE   D2A39412  19.299  12.538   4.616
 3471DLPE   D3A39413  18.959  12.258   4.845
 3471DLPE   C4A39414  18.624  12.235   5.146
 3471DLPE   C1B39415  19.540  13.254   4.379
 3471DLPE   D2B39416  19.548  12.936   4.741
 3471DLPE   D3B39417  19.348  12.674   5.054
 3471DLPE   C4B39418  18.867  12.608   5.224
 3472DLPE   NH339419  15.100  17.090   3.648
 3472DLPE   PO439420  15.436  16.974   3.569
 3472DLPE   GL139421  15.711  16.877   3.838
 3472DLPE   GL239422  15.735  17.099   3.979
 3472DLPE   C1A39423  15.748  16.510   4.154
 3472DLPE   D2A39424  15.703  16.007   4.264
 3472DLPE   D3A39425  15.595  16.311   4.586
 3472DLPE   C4A39426  15.258  16.336   4.975
 3472DLPE   C1B39427  15.680  17.212   4.413
 3472DLPE   D2B39428  15.693  17.380   4.844
 3472DLPE   D3B39429  15.533  17.504   5.224
 3472DLPE   C4B39430  15.617  17.831   5.525
 3473DLPE   NH339431  27.674  20.815   3.120
 3473DLPE   PO439432  27.552  21.164   3.112
 3473DLPE   GL139433  27.664  21.149   3.492
 3473DLPE   GL239434  27.392  21.291   3.602
 3473DLPE   C1A39435  27.732  20.937   3.911
 3473DLPE   D2A39436  27.566  20.719   4.311
 3473DLPE   D3A39437  27.362  20.612   4.694
 3473DLPE   C4A39438  27.491  20.127   4.844
 3473DLPE   C1B39439  27.251  21.260   4.018
 3473DLPE   D2B39440  27.469  21.165   4.441
 3473DLPE   D3B39441  27.841  21.388   4.620
 3473DLPE   C4B39442  27.687  21.373   4.969
 3474DLPE   NH339443  33.406  13.182   3.669
 3474DLPE   PO439444  33.049  13.146   3.736
 3474DLPE   GL139445  32.940  13.331   4.096
 3474DLPE   GL239446  33.232  13.452   4.131
 3474DLPE   C1A39447  32.987  13.223   4.522
 3474DLPE   D2A39448  33.082  13.337   4.974
 3474DLPE   D3A39449  33.094  13.217   5.452
 3474DLPE   C4A39450  32.979  12.776   5.516
 3474DLPE   C1B39451  33.175  13.790   4.404
 3474DLPE   D2B39452  32.805  13.962   4.672
 3474DLPE   D3B39453  33.157  13.786   4.959
 3474DLPE   C4B39454  33.343  14.175   5.016
 3475DLPE   NH339455  33.138  30.707   3.281
 3475DLPE   PO439456  33.177  31.010   3.473
 3475DLPE   GL139457  33.167  30.895   3.913
 3475DLPE   GL239458  32.873  30.917   3.870
 3475DLPE   C1A39459  33.232  30.892   4.324
 3475DLPE   D2A39460  33.259  31.070   4.814
 3475DLPE   D3A39461  32.958  31.305   5.058
 3475DLPE   C4A39462  32.901  31.449   5.533
 3475DLPE   C1B39463  32.689  30.954   4.281
 3475DLPE   D2B39464  32.388  30.934   4.633
 3475DLPE   D3B39465  32.467  30.625   4.945
 3475DLPE   C4B39466  32.645  30.492   5.394
 3476DLPE   NH339467  28.510  27.671   2.785
 3476DLPE   PO439468  28.507  27.676   3.134
 3476DLPE   GL139469  28.545  27.505   3.497
 3476DLPE   GL239470  28.627  27.321   3.535
 3476DLPE   C1A39471  28.556  27.802   3.854
 3476DLPE   D2A39472  28.496  27.884   4.433
 3476DLPE   D3A39473  28.221  28.065   4.112
 3476DLPE   C4A39474  27.847  27.791   4.337
 3476DLPE   C1B39475  28.584  27.318   3.943
 3476DLPE   D2B39476  28.535  27.409   4.396
 3476DLPE   D3B39477  28.350  27.221   4.782
 3476DLPE   C4B39478  28.037  27.345   5.134
 3477DLPE   NH339479  14.677  15.037   3.394
 3477DLPE   PO439480  14.869  15.274   3.500
 3477DLPE   GL139481  14.948  15.248   3.809
 3477DLPE   GL239482  14.652  15.352   3.901
 3477DLPE   C1A39483  14.980  14.891   4.073
 3477DLPE   D2A39484  14.866  14.801   4.527
 3477DLPE   D3A39485  14.741  14.357   4.540
 3477DLPE   C4A39486  14.625  14.217   4.969
 3477DLPE   C1B39487  14.581  15.182   4.321
 3477DLPE   D2B39488  14.516  14.990   4.804
 3477DLPE   D3B39489  14.373  15.416   4.776
 3477DLPE   C4B39490  14.346  15.846   5.057
 3478DLPE   NH339491   8.464  11.202   3.366
 3478DLPE   PO439492   8.262  10.933   3.241
 3478DLPE   GL139493   8.271  10.672   3.582
 3478DLPE   GL239494   8.470  10.876   3.713
 3478DLPE   C1A39495   8.346  10.286   3.755
 3478DLPE   D2A39496   8.158   9.779   3.747
 3478DLPE   D3A39497   7.891   9.866   4.112
 3478DLPE   C4A39498   7.646   9.453   4.111
 3478DLPE   C1B39499   8.623  10.674   4.019
 3478DLPE   D2B39500   8.748  10.353   4.455
 3478DLPE   D3B39501   8.418  10.375   4.817
 3478DLPE   C4B39502   7.950  10.493   4.801
 3479DLPE   NH339503  33.860  13.633   3.316
 3479DLPE   PO439504  33.803  13.420   3.565
 3479DLPE   GL139505  33.929  13.562   3.894
 3479DLPE   GL239506  33.936  13.765   3.893
 3479DLPE   C1A39507  34.281  13.277   4.071
 3479DLPE   D2A39508  34.553  13.469   4.451
 3479DLPE   D3A39509  34.926  13.295   4.650
 3479DLPE   C4A39510  35.098  13.333   5.030
 3479DLPE   C1B39511  33.682  13.731   4.260
 3479DLPE   D2B39512  33.439  13.461   4.629
 3479DLPE   D3B39513  33.570  13.110   4.906
 3479DLPE   C4B39514  33.299  12.843   5.168
 3480DLPE   NH339515  18.932  29.217   3.209
 3480DLPE   PO439516  18.749  29.493   3.376
 3480DLPE   GL139517  18.472  29.562   3.656
 3480DLPE   GL239518  18.571  29.385   3.831
 3480DLPE   C1A39519  18.409  29.857   3.959
 3480DLPE   D2A39520  18.174  30.305   3.916
 3480DLPE   D3A39521  18.432  30.559   4.179
 3480DLPE   C4A39522  18.331  30.939   4.338
 3480DLPE   C1B39523  18.432  29.469   4.263
 3480DLPE   D2B39524  18.349  29.717   4.670
 3480DLPE   D3B39525  18.011  29.737   4.918
 3480DLPE   C4B39526  17.600  29.933   4.977
 3481DLPE   NH339527  26.363  11.096   3.119
 3481DLPE   PO439528  26.477  10.786   3.311
 3481DLPE   GL139529  26.696  10.670   3.628
 3481DLPE   GL239530  26.743  10.832   3.798
 3481DLPE   C1A39531  26.428  10.411   3.853
 3481DLPE   D2A39532  26.600  10.288   4.306
 3481DLPE   D3A39533  26.484  10.437   4.753
 3481DLPE   C4A39534  26.864  10.139   4.972
 3481DLPE   C1B39535  26.731  10.719   4.223
 3481DLPE   D2B39536  26.907  10.652   4.705
 3481DLPE   D3B39537  26.786  10.579   5.129
 3481DLPE   C4B39538  26.394  10.504   5.288
 3482DLPE   NH339539   0.985   0.238   3.255
 3482DLPE   PO439540   0.694   0.102   3.425
 3482DLPE   GL139541   0.680   0.098   3.792
 3482DLPE   GL239542   0.440  -0.157   3.727
 3482DLPE   C1A39543   1.081  -0.075   4.006
 3482DLPE   D2A39544   1.198   0.188   4.453
 3482DLPE   D3A39545   1.115  -0.158   4.772
 3482DLPE   C4A39546   1.429   0.125   4.845
 3482DLPE   C1B39547   0.401  -0.281   4.120
 3482DLPE   D2B39548   0.185  -0.385   4.530
 3482DLPE   D3B39549   0.487  -0.162   4.895
 3482DLPE   C4B39550   0.736  -0.051   4.483
 3483DLPE   NH339551  25.333  35.657   3.448
 3483DLPE   PO439552  25.293  35.979   3.553
 3483DLPE   GL139553  25.307  35.860   3.890
 3483DLPE   GL239554  25.604  35.772   3.848
 3483DLPE   C1A39555  25.351  36.185   4.114
 3483DLPE   D2A39556  25.529  35.994   4.550
 3483DLPE   D3A39557  25.689  36.212   4.890
 3483DLPE   C4A39558  26.062  36.281   5.098
 3483DLPE   C1B39559  25.665  35.650   4.252
 3483DLPE   D2B39560  25.908  35.548   4.684
 3483DLPE   D3B39561  26.026  35.782   5.064
 3483DLPE   C4B39562  25.643  35.927   5.351
 3484DLPE   NH339563   7.585  33.475   3.561
 3484DLPE   PO439564   7.374  33.417   3.295
 3484DLPE   GL139565   7.086  33.735   3.394
 3484DLPE   GL239566   7.177  33.809   3.633
 3484DLPE   C1A39567   6.635  33.795   3.507
 3484DLPE   D2A39568   6.524  33.717   3.991
 3484DLPE   D3A39569   6.209  34.000   4.046
 3484DLPE   C4A39570   6.353  34.238   4.492
 3484DLPE   C1B39571   6.941  33.890   3.887
 3484DLPE   D2B39572   6.872  33.910   4.409
 3484DLPE   D3B39573   6.445  33.723   4.550
 3484DLPE   C4B39574   6.188  33.592   4.896
 3485DLPE   NH339575  16.427   2.586   2.990
 3485DLPE   PO439576  16.776   2.601   3.164
 3485DLPE   GL139577  16.562   2.379   3.392
 3485DLPE   GL239578  16.321   2.595   3.444
 3485DLPE   C1A39579  16.719   2.380   3.809
 3485DLPE   D2A39580  16.570   2.123   4.222
 3485DLPE   D3A39581  16.414   1.729   4.121
 3485DLPE   C4A39582  16.197   1.800   4.537
 3485DLPE   C1B39583  16.303   2.637   3.877
 3485DLPE   D2B39584  16.510   2.689   4.350
 3485DLPE   D3B39585  16.764   3.070   4.417
 3485DLPE   C4B39586  17.195   2.972   4.639
 3486DLPE   NH339587  21.893  20.813   3.579
 3486DLPE   PO439588  21.649  21.073   3.605
 3486DLPE   GL139589  21.450  21.020   3.943
 3486DLPE   GL239590  21.620  21.289   4.027
 3486DLPE   C1A39591  21.117  20.899   4.139
 3486DLPE   D2A39592  20.899  20.848   4.626
 3486DLPE   D3A39593  20.705  20.729   4.979
 3486DLPE   C4A39594  20.458  20.426   5.228
 3486DLPE   C1B39595  21.408  21.250   4.430
 3486DLPE   D2B39596  21.233  21.130   4.889
 3486DLPE   D3B39597  21.579  21.370   4.894
 3486DLPE   C4B39598  21.688  21.862   5.104
 3487DLPE   NH339599  12.593  34.450   3.525
 3487DLPE   PO439600  12.431  34.138   3.493
 3487DLPE   GL139601  12.258  34.202   3.877
 3487DLPE   GL239602  12.504  34.261   3.990
 3487DLPE   C1A39603  11.961  34.071   4.131
 3487DLPE   D2A39604  11.475  34.018   4.296
 3487DLPE   D3A39605  11.228  34.124   4.676
 3487DLPE   C4A39606  10.863  33.986   4.962
 3487DLPE   C1B39607  12.563  34.348   4.395
 3487DLPE   D2B39608  12.854  34.609   4.746
 3487DLPE   D3B39609  12.875  34.342   5.130
 3487DLPE   C4B39610  12.996  34.441   5.564
 3488DLPE   NH339611  32.887  25.483   3.490
 3488DLPE   PO439612  32.569  25.332   3.612
 3488DLPE   GL139613  32.805  25.141   4.029
 3488DLPE   GL239614  32.487  25.151   4.021
 3488DLPE   C1A39615  33.007  24.926   4.331
 3488DLPE   D2A39616  32.972  24.863   4.858
 3488DLPE   D3A39617  32.828  24.394   4.954
 3488DLPE   C4A39618  32.425  24.193   5.138
 3488DLPE   C1B39619  32.302  24.807   4.214
 3488DLPE   D2B39620  32.492  24.655   4.644
 3488DLPE   D3B39621  32.536  24.819   5.083
 3488DLPE   C4B39622  32.791  24.582   5.397
 3489DLPE   NH339623  10.283  13.858   3.578
 3489DLPE   PO439624  10.432  13.547   3.602
 3489DLPE   GL139625  10.303  13.394   3.984
 3489DLPE   GL239626  10.416  13.631   4.043
 3489DLPE   C1A39627  10.100  13.398   4.282
 3489DLPE   D2A39628  10.075  13.041   4.597
 3489DLPE   D3A39629  10.079  13.157   5.046
 3489DLPE   C4A39630   9.988  13.515   4.734
 3489DLPE   C1B39631  10.345  13.835   4.459
 3489DLPE   D2B39632  10.404  13.970   4.957
 3489DLPE   D3B39633  10.224  13.683   5.217
 3489DLPE   C4B39634   9.748  13.598   5.296
 3490DLPE   NH339635  26.546  22.898   2.886
 3490DLPE   PO439636  26.492  23.226   2.979
 3490DLPE   GL139637  26.511  23.405   3.277
 3490DLPE   GL239638  26.764  23.384   3.381
 3490DLPE   C1A39639  26.200  23.430   3.584
 3490DLPE   D2A39640  26.120  23.590   4.075
 3490DLPE   D3A39641  26.527  23.677   4.313
 3490DLPE   C4A39642  26.159  23.710   4.611
 3490DLPE   C1B39643  26.862  23.608   3.767
 3490DLPE   D2B39644  26.701  23.997   3.992
 3490DLPE   D3B39645  26.727  24.378   4.228
 3490DLPE   C4B39646  26.977  24.597   4.503
 3491DLPE   NH339647  30.736  20.317   3.042
 3491DLPE   PO439648  30.755  20.094   3.303
 3491DLPE   GL139649  30.352  20.158   3.543
 3491DLPE   GL239650  30.267  19.951   3.421
 3491DLPE   C1A39651  30.390  20.068   3.962
 3491DLPE   D2A39652  30.073  20.023   4.386
 3491DLPE   D3A39653  30.236  20.139   4.753
 3491DLPE   C4A39654  30.366  20.106   5.140
 3491DLPE   C1B39655  30.112  19.659   3.717
 3491DLPE   D2B39656  30.252  19.593   4.169
 3491DLPE   D3B39657  30.195  19.600   4.622
 3491DLPE   C4B39658  30.052  19.724   5.078
 3492DLPE   NH339659   3.010  14.580   4.318
 3492DLPE   PO439660   2.758  14.286   4.387
 3492DLPE   GL139661   2.806  14.139   4.761
 3492DLPE   GL239662   2.588  14.148   4.809
 3492DLPE   C1A39663   2.798  13.750   4.995
 3492DLPE   D2A39664   3.036  13.619   5.455
 3492DLPE   D3A39665   2.715  13.910   5.556
 3492DLPE   C4A39666   2.404  13.585   5.654
 3492DLPE   C1B39667   2.659  14.329   5.181
 3492DLPE   D2B39668   2.663  14.527   5.660
 3492DLPE   D3B39669   2.857  14.603   6.009
 3492DLPE   C4B39670   2.591  14.167   5.951
 3493DLPE   NH339671  18.327  22.541   3.512
 3493DLPE   PO439672  18.557  22.810   3.470
 3493DLPE   GL139673  18.524  22.707   3.866
 3493DLPE   GL239674  18.225  22.872   3.848
 3493DLPE   C1A39675  18.562  22.394   4.218
 3493DLPE   D2A39676  18.650  22.164   4.646
 3493DLPE   D3A39677  18.634  21.776   4.937
 3493DLPE   C4A39678  18.740  21.644   5.343
 3493DLPE   C1B39679  18.004  23.041   4.197
 3493DLPE   D2B39680  17.596  23.084   4.534
 3493DLPE   D3B39681  17.462  23.246   4.978
 3493DLPE   C4B39682  17.566  23.627   5.273
 3494DLPE   NH339683   3.791   8.158   3.042
 3494DLPE   PO439684   3.632   8.396   3.135
 3494DLPE   GL139685   3.754   8.450   3.576
 3494DLPE   GL239686   3.687   8.637   3.707
 3494DLPE   C1A39687   3.997   8.265   3.897
 3494DLPE   D2A39688   4.331   8.070   4.183
 3494DLPE   D3A39689   4.534   7.682   4.351
 3494DLPE   C4A39690   4.938   7.539   4.573
 3494DLPE   C1B39691   3.890   8.687   4.095
 3494DLPE   D2B39692   4.170   8.494   4.396
 3494DLPE   D3B39693   4.095   8.606   4.870
 3494DLPE   C4B39694   3.860   8.832   4.564
 3495DLPE   NH339695   2.415  24.163   3.823
 3495DLPE   PO439696   2.659  24.026   4.071
 3495DLPE   GL139697   2.656  24.280   4.363
 3495DLPE   GL239698   2.474  24.429   4.224
 3495DLPE   C1A39699   2.506  24.319   4.736
 3495DLPE   D2A39700   2.647  24.243   5.190
 3495DLPE   D3A39701   2.377  24.426   5.503
 3495DLPE   C4A39702   1.904  24.206   5.446
 3495DLPE   C1B39703   2.708  24.801   4.300
 3495DLPE   D2B39704   3.095  24.929   4.572
 3495DLPE   D3B39705   3.431  24.971   4.768
 3495DLPE   C4B39706   3.374  24.666   5.171
 3496DLPE   NH339707   6.561  26.367   2.736
 3496DLPE   PO439708   6.731  26.606   2.908
 3496DLPE   GL139709   6.780  26.541   3.348
 3496DLPE   GL239710   6.697  26.781   3.392
 3496DLPE   C1A39711   6.908  26.323   3.641
 3496DLPE   D2A39712   7.153  26.121   4.001
 3496DLPE   D3A39713   7.570  26.125   3.866
 3496DLPE   C4A39714   8.014  26.212   3.594
 3496DLPE   C1B39715   6.950  26.878   3.712
 3496DLPE   D2B39716   7.409  27.089   3.875
 3496DLPE   D3B39717   7.211  26.924   4.261
 3496DLPE   C4B39718   7.303  26.704   4.632
 3497DLPE   NH339719   4.673  32.378   3.535
 3497DLPE   PO439720   4.985  32.596   3.570
 3497DLPE   GL139721   5.167  32.295   3.762
 3497DLPE   GL239722   5.335  32.159   3.552
 3497DLPE   C1A39723   5.442  32.260   4.078
 3497DLPE   D2A39724   5.823  32.373   4.323
 3497DLPE   D3A39725   5.987  32.655   4.566
 3497DLPE   C4A39726   6.305  32.392   4.346
 3497DLPE   C1B39727   5.747  32.161   3.719
 3497DLPE   D2B39728   6.285  32.181   3.812
 3497DLPE   D3B39729   6.331  32.633   3.842
 3497DLPE   C4B39730   6.668  32.726   4.261
 3498DLPE   NH339731   9.875   5.707   3.199
 3498DLPE   PO439732   9.677   5.923   3.345
 3498DLPE   GL139733   9.566   6.005   3.822
 3498DLPE   GL239734   9.715   5.743   3.807
 3498DLPE   C1A39735   9.412   5.940   4.259
 3498DLPE   D2A39736   9.040   5.807   4.578
 3498DLPE   D3A39737   8.648   6.044   4.457
 3498DLPE   C4A39738   8.624   6.563   4.440
 3498DLPE   C1B39739   9.872   5.757   4.269
 3498DLPE   D2B39740   9.710   5.859   4.702
 3498DLPE   D3B39741   9.658   6.163   5.026
 3498DLPE   C4B39742   9.860   6.415   5.373
 3499DLPE   NH339743  22.795  28.975   2.720
 3499DLPE   PO439744  22.728  29.215   2.968
 3499DLPE   GL139745  22.729  29.156   3.337
 3499DLPE   GL239746  22.920  28.976   3.452
 3499DLPE   C1A39747  22.543  29.189   3.695
 3499DLPE   D2A39748  22.151  29.129   4.000
 3499DLPE   D3A39749  22.240  29.283   4.459
 3499DLPE   C4A39750  22.663  29.212   4.693
 3499DLPE   C1B39751  23.083  28.860   3.877
 3499DLPE   D2B39752  23.117  28.682   4.349
 3499DLPE   D3B39753  23.319  28.558   4.754
 3499DLPE   C4B39754  23.750  28.663   4.973
 3500DLPE   NH339755  22.631  27.688   3.115
 3500DLPE   PO439756  22.420  27.947   3.163
 3500DLPE   GL139757  22.361  27.994   3.614
 3500DLPE   GL239758  22.142  28.148   3.522
 3500DLPE   C1A39759  22.536  27.974   4.036
 3500DLPE   D2A39760  22.608  27.763   4.515
 3500DLPE   D3A39761  22.513  27.698   4.996
 3500DLPE   C4A39762  22.623  27.304   5.165
 3500DLPE   C1B39763  21.966  28.109   3.936
 3500DLPE   D2B39764  22.136  28.118   4.364
 3500DLPE   D3B39765  22.528  28.258   4.545
 3500DLPE   C4B39766  22.669  28.677   4.516
 3501DLPE   NH339767  21.243  14.116   3.579
 3501DLPE   PO439768  21.015  13.885   3.595
 3501DLPE   GL139769  20.946  13.684   4.003
 3501DLPE   GL239770  20.804  13.844   4.207
 3501DLPE   C1A39771  21.034  13.332   4.211
 3501DLPE   D2A39772  21.395  13.155   4.535
 3501DLPE   D3A39773  21.140  13.364   4.803
 3501DLPE   C4A39774  20.902  13.528   5.182
 3501DLPE   C1B39775  20.938  13.966   4.612
 3501DLPE   D2B39776  21.327  14.310   4.724
 3501DLPE   D3B39777  21.582  14.168   5.026
 3501DLPE   C4B39778  21.673  14.255   5.500
 3502DLPE   NH339779  21.898  32.938   3.461
 3502DLPE   PO439780  22.209  32.933   3.611
 3502DLPE   GL139781  22.147  32.739   4.030
 3502DLPE   GL239782  22.140  32.487   3.875
 3502DLPE   C1A39783  22.255  32.735   4.484
 3502DLPE   D2A39784  22.277  32.695   4.964
 3502DLPE   D3A39785  22.070  32.435   5.283
 3502DLPE   C4A39786  21.803  32.865   5.205
 3502DLPE   C1B39787  21.927  32.108   3.906
 3502DLPE   D2B39788  21.837  31.621   3.892
 3502DLPE   D3B39789  21.598  31.247   3.903
 3502DLPE   C4B39790  21.225  31.444   4.124
 3503DLPE   NH339791  13.435  29.781   3.271
 3503DLPE   PO439792  13.122  29.969   3.312
 3503DLPE   GL139793  12.889  29.897   3.685
 3503DLPE   GL239794  12.852  29.659   3.639
 3503DLPE   C1A39795  12.798  30.009   4.138
 3503DLPE   D2A39796  12.795  29.921   4.678
 3503DLPE   D3A39797  12.517  30.219   4.875
 3503DLPE   C4A39798  12.565  30.295   4.434
 3503DLPE   C1B39799  12.869  29.480   4.087
 3503DLPE   D2B39800  12.848  29.453   4.554
 3503DLPE   D3B39801  12.865  29.478   4.999
 3503DLPE   C4B39802  13.069  29.822   5.206
 3504DLPE   NH339803  23.475   4.278   3.351
 3504DLPE   PO439804  23.357   3.962   3.410
 3504DLPE   GL139805  23.276   3.811   3.677
 3504DLPE   GL239806  23.437   4.023   3.814
 3504DLPE   C1A39807  22.945   3.653   3.889
 3504DLPE   D2A39808  22.636   3.519   4.188
 3504DLPE   D3A39809  22.660   3.695   4.603
 3504DLPE   C4A39810  22.307   3.715   4.908
 3504DLPE   C1B39811  23.215   4.269   4.076
 3504DLPE   D2B39812  23.067   4.485   4.550
 3504DLPE   D3B39813  23.068   4.376   4.996
 3504DLPE   C4B39814  23.105   4.045   5.318
 3505DLPE   NH339815  22.283  10.540   3.699
 3505DLPE   PO439816  22.473  10.192   3.681
 3505DLPE   GL139817  22.660  10.196   3.973
 3505DLPE   GL239818  22.793   9.915   3.962
 3505DLPE   C1A39819  22.658  10.357   4.389
 3505DLPE   D2A39820  22.677  10.596   4.840
 3505DLPE   D3A39821  22.485  10.455   5.232
 3505DLPE   C4A39822  22.233  10.510   5.631
 3505DLPE   C1B39823  22.964   9.913   4.420
 3505DLPE   D2B39824  22.996   9.619   4.814
 3505DLPE   D3B39825  23.167   9.503   5.221
 3505DLPE   C4B39826  23.245   9.380   5.685
 3506DLPE   NH339827  28.590  11.081   3.629
 3506DLPE   PO439828  28.788  10.817   3.504
 3506DLPE   GL139829  28.735  10.552   3.840
 3506DLPE   GL239830  28.653  10.294   3.631
 3506DLPE   C1A39831  28.729  10.580   4.288
 3506DLPE   D2A39832  29.001  10.497   4.726
 3506DLPE   D3A39833  29.088  10.683   5.174
 3506DLPE   C4A39834  29.061  11.061   5.347
 3506DLPE   C1B39835  28.405  10.239   4.021
 3506DLPE   D2B39836  27.992  10.043   4.193
 3506DLPE   D3B39837  27.953   9.607   4.430
 3506DLPE   C4B39838  27.850   9.616   4.904
 3507DLPE   NH339839  31.807  14.321   3.508
 3507DLPE   PO439840  31.616  14.047   3.419
 3507DLPE   GL139841  31.183  13.976   3.600
 3507DLPE   GL239842  31.354  13.740   3.685
 3507DLPE   C1A39843  31.193  14.294   3.899
 3507DLPE   D2A39844  31.008  14.657   4.143
 3507DLPE   D3A39845  30.960  15.052   4.309
 3507DLPE   C4A39846  31.041  15.487   4.198
 3507DLPE   C1B39847  31.357  13.541   4.083
 3507DLPE   D2B39848  31.276  13.323   4.444
 3507DLPE   D3B39849  31.087  13.150   4.869
 3507DLPE   C4B39850  31.194  13.031   5.357
 3508DLPE   NH339851  17.989  30.597   3.104
 3508DLPE   PO439852  17.946  30.896   3.275
 3508DLPE   GL139853  18.009  30.795   3.742
 3508DLPE   GL239854  17.822  30.585   3.749
 3508DLPE   C1A39855  18.409  30.909   3.822
 3508DLPE   D2A39856  18.779  31.246   3.923
 3508DLPE   D3A39857  19.133  31.421   4.173
 3508DLPE   C4A39858  19.460  31.603   4.468
 3508DLPE   C1B39859  17.527  30.477   4.060
 3508DLPE   D2B39860  17.312  30.579   4.482
 3508DLPE   D3B39861  16.926  30.497   4.685
 3508DLPE   C4B39862  17.119  30.668   5.071
 3509DLPE   NH339863   1.550  20.285   4.049
 3509DLPE   PO439864   1.727  20.193   3.744
 3509DLPE   GL139865   1.994  19.912   3.744
 3509DLPE   GL239866   1.910  19.852   4.086
 3509DLPE   C1A39867   2.307  20.085   3.981
 3509DLPE   D2A39868   2.404  20.266   4.426
 3509DLPE   D3A39869   2.497  19.953   4.800
 3509DLPE   C4A39870   2.850  19.796   5.108
 3509DLPE   C1B39871   1.884  19.669   4.430
 3509DLPE   D2B39872   1.617  19.662   4.827
 3509DLPE   D3B39873   1.524  19.841   5.257
 3509DLPE   C4B39874   1.463  19.363   5.466
 3510DLPE   NH339875  33.529   8.817   2.817
 3510DLPE   PO439876  33.774   8.935   3.024
 3510DLPE   GL139877  33.803   9.139   3.388
 3510DLPE   GL239878  33.921   8.883   3.471
 3510DLPE   C1A39879  33.481   9.116   3.674
 3510DLPE   D2A39880  33.071   9.326   3.870
 3510DLPE   D3A39881  33.424   9.528   4.153
 3510DLPE   C4A39882  33.866   9.443   4.039
 3510DLPE   C1B39883  33.970   8.937   3.836
 3510DLPE   D2B39884  34.233   9.163   4.211
 3510DLPE   D3B39885  34.319   9.039   4.639
 3510DLPE   C4B39886  34.639   9.288   4.795
 3511DLPE   NH339887  31.074  26.751   3.629
 3511DLPE   PO439888  31.302  26.647   3.339
 3511DLPE   GL139889  31.543  26.827   3.718
 3511DLPE   GL239890  31.420  26.622   3.889
 3511DLPE   C1A39891  31.528  27.170   3.976
 3511DLPE   D2A39892  31.824  27.432   4.297
 3511DLPE   D3A39893  31.940  27.557   4.750
 3511DLPE   C4A39894  32.281  27.310   4.517
 3511DLPE   C1B39895  31.636  26.772   4.243
 3511DLPE   D2B39896  31.562  27.068   4.679
 3511DLPE   D3B39897  31.436  27.472   4.627
 3511DLPE   C4B39898  31.389  27.796   4.950
 3512DLPE   NH339899   9.606   6.866   3.370
 3512DLPE   PO439900   9.916   6.928   3.242
 3512DLPE   GL139901  10.180   6.956   3.671
 3512DLPE   GL239902   9.902   6.781   3.755
 3512DLPE   C1A39903  10.258   6.850   4.051
 3512DLPE   D2A39904  10.728   6.714   4.198
 3512DLPE   D3A39905  10.761   6.747   4.658
 3512DLPE   C4A39906  11.202   6.744   4.852
 3512DLPE   C1B39907   9.913   6.392   3.953
 3512DLPE   D2B39908   9.847   6.251   4.408
 3512DLPE   D3B39909  10.171   6.040   4.637
 3512DLPE   C4B39910  10.156   6.150   5.068
 3513DLPE   NH339911  25.306   6.707   3.243
 3513DLPE   PO439912  25.581   6.817   3.392
 3513DLPE   GL139913  25.495   6.754   3.832
 3513DLPE   GL239914  25.251   6.914   3.838
 3513DLPE   C1A39915  25.788   6.833   4.191
 3513DLPE   D2A39916  26.297   6.907   4.403
 3513DLPE   D3A39917  26.209   6.967   4.851
 3513DLPE   C4A39918  26.167   7.003   5.369
 3513DLPE   C1B39919  24.950   6.731   4.097
 3513DLPE   D2B39920  25.272   6.501   4.435
 3513DLPE   D3B39921  25.467   6.137   4.318
 3513DLPE   C4B39922  25.808   5.850   4.468
 3514DLPE   NH339923  31.998   5.375   3.250
 3514DLPE   PO439924  32.073   5.709   3.319
 3514DLPE   GL139925  32.029   5.625   3.733
 3514DLPE   GL239926  31.750   5.675   3.714
 3514DLPE   C1A39927  32.075   5.602   4.160
 3514DLPE   D2A39928  32.368   5.629   4.549
 3514DLPE   D3A39929  32.651   5.271   4.345
 3514DLPE   C4A39930  32.421   4.967   4.008
 3514DLPE   C1B39931  31.576   5.762   4.066
 3514DLPE   D2B39932  31.804   5.757   4.551
 3514DLPE   D3B39933  32.107   5.926   4.811
 3514DLPE   C4B39934  32.558   5.814   4.992
 3515DLPE   NH339935  17.027  29.161   3.349
 3515DLPE   PO439936  17.309  29.066   3.454
 3515DLPE   GL139937  17.347  28.962   3.853
 3515DLPE   GL239938  17.272  29.298   3.881
 3515DLPE   C1A39939  17.231  28.632   4.257
 3515DLPE   D2A39940  17.077  28.197   4.400
 3515DLPE   D3A39941  17.408  28.051   4.322
 3515DLPE   C4A39942  17.634  28.118   3.872
 3515DLPE   C1B39943  17.652  29.397   4.010
 3515DLPE   D2B39944  18.084  29.444   3.887
 3515DLPE   D3B39945  18.185  29.002   4.009
 3515DLPE   C4B39946  18.595  28.909   4.084
 3516DLPE   NH339947  10.297  10.712   3.347
 3516DLPE   PO439948  10.639  10.651   3.490
 3516DLPE   GL139949  10.562  10.593   3.947
 3516DLPE   GL239950  10.314  10.595   3.841
 3516DLPE   C1A39951  10.808  10.619   4.301
 3516DLPE   D2A39952  11.080  10.363   4.652
 3516DLPE   D3A39953  11.247   9.980   4.730
 3516DLPE   C4A39954  11.104   9.626   4.932
 3516DLPE   C1B39955  10.286  10.820   4.224
 3516DLPE   D2B39956  10.591  11.120   4.481
 3516DLPE   D3B39957  10.732  11.380   4.771
 3516DLPE   C4B39958  10.554  11.816   4.824
 3517DLPE   NH339959  21.673  10.152   3.414
 3517DLPE   PO439960  21.458   9.898   3.556
 3517DLPE   GL139961  21.330   9.910   3.993
 3517DLPE   GL239962  21.504   9.680   4.008
 3517DLPE   C1A39963  21.607  10.107   4.216
 3517DLPE   D2A39964  21.886  10.069   4.593
 3517DLPE   D3A39965  21.658  10.145   4.999
 3517DLPE   C4A39966  21.779  10.424   5.345
 3517DLPE   C1B39967  21.510   9.673   4.437
 3517DLPE   D2B39968  21.340   9.739   4.922
 3517DLPE   D3B39969  21.180   9.990   5.243
 3517DLPE   C4B39970  20.928  10.314   5.241
 3518DLPE   NH339971   1.237   5.259   3.301
 3518DLPE   PO439972   0.911   5.253   3.141
 3518DLPE   GL139973   0.822   5.221   3.633
 3518DLPE   GL239974   1.041   5.071   3.721
 3518DLPE   C1A39975   0.741   5.481   4.058
 3518DLPE   D2A39976   0.694   5.711   4.520
 3518DLPE   D3A39977   0.867   6.061   4.359
 3518DLPE   C4A39978   0.822   6.369   3.988
 3518DLPE   C1B39979   1.032   5.118   4.122
 3518DLPE   D2B39980   0.985   5.248   4.580
 3518DLPE   D3B39981   0.866   5.508   4.982
 3518DLPE   C4B39982   1.305   5.264   5.121
 3519DLPE   NH339983  17.837   0.397   3.068
 3519DLPE   PO439984  17.820   0.051   3.143
 3519DLPE   GL139985  17.717   0.103   3.502
 3519DLPE   GL239986  17.478   0.325   3.411
 3519DLPE   C1A39987  17.710  -0.304   3.767
 3519DLPE   D2A39988  17.367  -0.578   4.060
 3519DLPE   D3A39989  17.367  -0.732   4.531
 3519DLPE   C4A39990  17.393  -0.823   5.007
 3519DLPE   C1B39991  17.266   0.650   3.654
 3519DLPE   D2B39992  17.164   0.827   4.093
 3519DLPE   D3B39993  17.355   0.484   4.126
 3519DLPE   C4B39994  17.754   0.436   3.822
 3520DLPE   NH339995   2.863  25.563   3.307
 3520DLPE   PO439996   3.096  25.390   3.463
 3520DLPE   GL139997   3.171  25.531   3.882
 3520DLPE   GL239998   2.884  25.551   3.945
 3520DLPE   C1A39999   3.384  25.880   4.139
 3520DLPE   D2A40000   3.333  26.052   4.583
 3520DLPE   D3A40001   3.504  26.232   4.975
 3520DLPE   C4A40002   3.213  26.106   5.363
 3520DLPE   C1B40003   2.952  25.704   4.333
 3520DLPE   D2B40004   3.274  25.582   4.653
 3520DLPE   D3B40005   3.705  25.691   4.691
 3520DLPE   C4B40006   4.097  25.717   4.305
 3521DLPE   NH340007  13.640  34.370   3.567
 3521DLPE   PO440008  13.848  34.093   3.655
 3521DLPE   GL140009  13.882  34.218   4.087
 3521DLPE   GL240010  13.832  34.485   4.008
 3521DLPE   C1A40011  13.788  34.307   4.595
 3521DLPE   D2A40012  13.904  34.433   5.054
 3521DLPE   D3A40013  14.026  34.270   5.446
 3521DLPE   C4A40014  14.137  34.377   5.895
 3521DLPE   C1B40015  13.723  34.781   4.305
 3521DLPE   D2B40016  13.690  34.897   4.830
 3521DLPE   D3B40017  13.841  35.247   5.071
 3521DLPE   C4B40018  13.713  35.258   5.549
 3522DLPE   NH340019  32.532  13.705   3.272
 3522DLPE   PO440020  32.738  13.940   3.096
 3522DLPE   GL140021  32.784  14.141   3.468
 3522DLPE   GL240022  33.006  14.078   3.397
 3522DLPE   C1A40023  32.612  14.115   3.886
 3522DLPE   D2A40024  32.461  14.101   4.353
 3522DLPE   D3A40025  32.175  13.725   4.366
 3522DLPE   C4A40026  32.114  13.301   4.167
 3522DLPE   C1B40027  33.173  14.071   3.808
 3522DLPE   D2B40028  33.571  14.187   4.020
 3522DLPE   D3B40029  33.361  14.246   4.407
 3522DLPE   C4B40030  32.951  14.257   4.275
 3523DLPE   NH340031  22.837  18.082   3.861
 3523DLPE   PO440032  23.125  18.218   3.803
 3523DLPE   GL140033  23.028  18.490   4.138
 3523DLPE   GL240034  22.780  18.410   4.160
 3523DLPE   C1A40035  23.110  18.463   4.583
 3523DLPE   D2A40036  23.162  18.036   4.812
 3523DLPE   D3A40037  23.661  18.055   4.918
 3523DLPE   C4A40038  23.385  18.200   5.302
 3523DLPE   C1B40039  22.657  18.689   4.374
 3523DLPE   D2B40040  22.397  18.918   4.634
 3523DLPE   D3B40041  22.304  19.264   4.912
 3523DLPE   C4B40042  22.344  19.593   5.327
 3524DLPE   NH340043  32.098  33.487   3.091
 3524DLPE   PO440044  32.268  33.156   3.001
 3524DLPE   GL140045  32.130  33.151   3.468
 3524DLPE   GL240046  32.075  32.911   3.583
 3524DLPE   C1A40047  32.120  33.546   3.704
 3524DLPE   D2A40048  32.383  33.781   4.045
 3524DLPE   D3A40049  32.568  34.156   4.086
 3524DLPE   C4A40050  32.163  34.421   4.019
 3524DLPE   C1B40051  32.175  32.838   3.934
 3524DLPE   D2B40052  32.094  32.896   4.425
 3524DLPE   D3B40053  32.516  32.948   4.274
 3524DLPE   C4B40054  32.778  33.199   3.868
 3525DLPE   NH340055   2.950   6.169   3.359
 3525DLPE   PO440056   2.950   6.511   3.376
 3525DLPE   GL140057   2.689   6.654   3.778
 3525DLPE   GL240058   2.960   6.609   3.899
 3525DLPE   C1A40059   2.338   6.646   3.985
 3525DLPE   D2A40060   2.096   6.823   4.398
 3525DLPE   D3A40061   1.914   6.900   4.806
 3525DLPE   C4A40062   1.693   6.964   5.243
 3525DLPE   C1B40063   3.065   6.567   4.322
 3525DLPE   D2B40064   3.232   6.340   4.738
 3525DLPE   D3B40065   3.332   6.199   5.167
 3525DLPE   C4B40066   3.265   6.635   5.435
 3526DLPE   NH340067   4.462  21.401   3.734
 3526DLPE   PO440068   4.199  21.600   3.786
 3526DLPE   GL140069   4.269  21.626   4.133
 3526DLPE   GL240070   4.261  21.365   4.208
 3526DLPE   C1A40071   4.261  21.796   4.524
 3526DLPE   D2A40072   4.378  21.796   4.972
 3526DLPE   D3A40073   4.102  21.822   5.361
 3526DLPE   C4A40074   3.942  22.269   5.507
 3526DLPE   C1B40075   3.882  21.411   4.476
 3526DLPE   D2B40076   3.600  21.656   4.828
 3526DLPE   D3B40077   3.859  21.402   5.095
 3526DLPE   C4B40078   3.660  21.426   5.501
 3527DLPE   NH340079  33.246  31.959   3.143
 3527DLPE   PO440080  33.369  31.880   3.448
 3527DLPE   GL140081  33.267  32.105   3.796
 3527DLPE   GL240082  33.083  31.806   3.888
 3527DLPE   C1A40083  33.548  32.334   4.122
 3527DLPE   D2A40084  33.386  31.986   4.450
 3527DLPE   D3A40085  33.605  32.131   4.835
 3527DLPE   C4A40086  33.579  32.096   5.326
 3527DLPE   C1B40087  33.151  31.457   4.192
 3527DLPE   D2B40088  33.103  31.583   4.658
 3527DLPE   D3B40089  33.253  31.764   5.037
 3527DLPE   C4B40090  33.440  31.541   5.401
 3528DLPE   NH340091  22.979  10.118   3.500
 3528DLPE   PO440092  23.316  10.178   3.510
 3528DLPE   GL140093  23.476  10.009   3.780
 3528DLPE   GL240094  23.395   9.767   3.763
 3528DLPE   C1A40095  23.456  10.068   4.216
 3528DLPE   D2A40096  23.576  10.151   4.676
 3528DLPE   D3A40097  23.820  10.241   5.087
 3528DLPE   C4A40098  23.884  10.371   5.543
 3528DLPE   C1B40099  23.334   9.588   4.134
 3528DLPE   D2B40100  23.118   9.277   4.450
 3528DLPE   D3B40101  23.309   9.222   4.876
 3528DLPE   C4B40102  23.533   9.619   4.848
 3529DLPE   NH340103  13.500   9.601   2.775
 3529DLPE   PO440104  13.291   9.444   3.061
 3529DLPE   GL140105  13.294   9.224   3.487
 3529DLPE   GL240106  13.542   9.416   3.612
 3529DLPE   C1A40107  13.240   8.993   3.937
 3529DLPE   D2A40108  13.131   8.742   4.361
 3529DLPE   D3A40109  12.772   8.631   4.545
 3529DLPE   C4A40110  12.438   8.447   4.669
 3529DLPE   C1B40111  13.600   9.379   4.055
 3529DLPE   D2B40112  13.537   9.213   4.519
 3529DLPE   D3B40113  13.276   9.499   4.699
 3529DLPE   C4B40114  13.270   9.815   4.379
 3530DLPE   NH340115  14.728  17.284   3.298
 3530DLPE   PO440116  14.629  17.252   3.603
 3530DLPE   GL140117  14.301  17.165   3.907
 3530DLPE   GL240118  14.126  17.409   3.900
 3530DLPE   C1A40119  14.282  17.281   4.335
 3530DLPE   D2A40120  14.099  17.432   4.745
 3530DLPE   D3A40121  13.927  17.212   5.150
 3530DLPE   C4A40122  14.231  17.203   5.437
 3530DLPE   C1B40123  14.096  17.760   4.229
 3530DLPE   D2B40124  14.012  18.184   4.468
 3530DLPE   D3B40125  13.894  18.186   4.950
 3530DLPE   C4B40126  13.471  17.910   5.115
 3531DLPE   NH340127  17.035  20.548   4.005
 3531DLPE   PO440128  16.729  20.356   3.897
 3531DLPE   GL140129  16.576  20.156   4.285
 3531DLPE   GL240130  16.329  20.281   4.235
 3531DLPE   C1A40131  16.656  20.140   4.693
 3531DLPE   D2A40132  16.470  20.451   5.060
 3531DLPE   D3A40133  16.275  20.712   5.360
 3531DLPE   C4A40134  16.479  20.576   5.775
 3531DLPE   C1B40135  16.145  20.152   4.646
 3531DLPE   D2B40136  15.922  20.416   5.001
 3531DLPE   D3B40137  15.924  20.330   5.473
 3531DLPE   C4B40138  15.745  20.007   5.789
 3532DLPE   NH340139  32.910   6.562   3.115
 3532DLPE   PO440140  33.013   6.576   3.456
 3532DLPE   GL140141  32.657   6.690   3.726
 3532DLPE   GL240142  32.836   6.649   3.917
 3532DLPE   C1A40143  32.366   6.939   3.836
 3532DLPE   D2A40144  32.135   7.017   4.319
 3532DLPE   D3A40145  32.275   6.981   4.709
 3532DLPE   C4A40146  31.976   7.108   4.962
 3532DLPE   C1B40147  32.717   6.464   4.252
 3532DLPE   D2B40148  32.470   6.151   4.596
 3532DLPE   D3B40149  32.131   6.481   4.801
 3532DLPE   C4B40150  31.862   6.584   5.176
 3533DLPE   NH340151   3.940   5.097   3.236
 3533DLPE   PO440152   3.589   5.294   3.274
 3533DLPE   GL140153   3.474   5.175   3.630
 3533DLPE   GL240154   3.800   5.174   3.676
 3533DLPE   C1A40155   3.161   5.210   3.904
 3533DLPE   D2A40156   2.657   5.081   3.933
 3533DLPE   D3A40157   2.636   5.214   4.305
 3533DLPE   C4A40158   3.021   5.537   4.459
 3533DLPE   C1B40159   4.079   5.011   4.065
 3533DLPE   D2B40160   4.022   4.853   4.495
 3533DLPE   D3B40161   4.037   4.410   4.557
 3533DLPE   C4B40162   4.310   4.544   4.948
 3534DLPE   NH340163  16.783  35.217   2.807
 3534DLPE   PO440164  17.023  35.470   2.766
 3534DLPE   GL140165  17.217  35.497   3.087
 3534DLPE   GL240166  17.017  35.652   3.209
 3534DLPE   C1A40167  17.415  35.288   3.394
 3534DLPE   D2A40168  17.479  35.013   3.733
 3534DLPE   D3A40169  17.138  34.999   4.140
 3534DLPE   C4A40170  17.097  34.886   4.594
 3534DLPE   C1B40171  17.176  35.684   3.649
 3534DLPE   D2B40172  16.938  35.959   3.954
 3534DLPE   D3B40173  17.016  35.619   4.328
 3534DLPE   C4B40174  16.917  35.454   4.759
 3535DLPE   NH340175  31.376  13.559   3.281
 3535DLPE   PO440176  31.031  13.567   3.356
 3535DLPE   GL140177  30.948  13.553   3.725
 3535DLPE   GL240178  30.798  13.320   3.753
 3535DLPE   C1A40179  30.919  13.863   3.959
 3535DLPE   D2A40180  31.054  14.115   4.353
 3535DLPE   D3A40181  31.313  14.030   4.684
 3535DLPE   C4A40182  31.308  13.583   4.881
 3535DLPE   C1B40183  30.812  13.253   4.180
 3535DLPE   D2B40184  30.804  13.468   4.629
 3535DLPE   D3B40185  30.490  13.160   4.828
 3535DLPE   C4B40186  30.762  13.291   5.227
 3536DLPE   NH340187   1.433  29.990   3.204
 3536DLPE   PO440188   1.411  30.304   3.346
 3536DLPE   GL140189   1.416  30.219   3.811
 3536DLPE   GL240190   1.245  30.012   3.676
 3536DLPE   C1A40191   1.161  30.152   4.153
 3536DLPE   D2A40192   0.916  29.989   4.513
 3536DLPE   D3A40193   0.866  30.393   4.649
 3536DLPE   C4A40194   1.129  30.830   4.680
 3536DLPE   C1B40195   1.033  29.761   3.905
 3536DLPE   D2B40196   0.750  29.518   4.212
 3536DLPE   D3B40197   0.362  29.338   4.169
 3536DLPE   C4B40198   0.293  29.213   4.652
 3537DLPE   NH340199  28.363  29.636   2.614
 3537DLPE   PO440200  28.316  29.390   2.829
 3537DLPE   GL140201  28.169  29.590   3.097
 3537DLPE   GL240202  28.292  29.796   3.032
 3537DLPE   C1A40203  27.947  29.472   3.450
 3537DLPE   D2A40204  27.848  29.399   3.914
 3537DLPE   D3A40205  27.848  29.225   4.294
 3537DLPE   C4A40206  27.779  29.408   4.682
 3537DLPE   C1B40207  28.560  29.945   3.385
 3537DLPE   D2B40208  28.849  30.300   3.446
 3537DLPE   D3B40209  28.601  30.391   3.784
 3537DLPE   C4B40210  28.753  30.291   4.217
 3538DLPE   NH340211  33.052  21.282   3.126
 3538DLPE   PO440212  33.268  21.492   3.373
 3538DLPE   GL140213  33.260  21.589   3.834
 3538DLPE   GL240214  33.486  21.414   3.770
 3538DLPE   C1A40215  32.895  21.497   4.144
 3538DLPE   D2A40216  32.570  21.310   4.512
 3538DLPE   D3A40217  32.360  21.061   4.887
 3538DLPE   C4A40218  32.529  20.997   5.349
 3538DLPE   C1B40219  33.415  21.012   3.972
 3538DLPE   D2B40220  33.306  20.554   4.177
 3538DLPE   D3B40221  33.202  20.214   3.890
 3538DLPE   C4B40222  33.421  19.948   4.138
 3539DLPE   NH340223   6.032  22.409   3.809
 3539DLPE   PO440224   6.183  22.632   3.574
 3539DLPE   GL140225   6.464  22.654   3.907
 3539DLPE   GL240226   6.384  22.516   4.124
 3539DLPE   C1A40227   6.691  22.924   4.197
 3539DLPE   D2A40228   6.770  23.075   4.690
 3539DLPE   D3A40229   6.874  23.248   5.094
 3539DLPE   C4A40230   6.855  23.664   5.058
 3539DLPE   C1B40231   6.009  22.650   4.377
 3539DLPE   D2B40232   5.829  22.885   4.742
 3539DLPE   D3B40233   5.882  23.260   4.937
 3539DLPE   C4B40234   5.599  23.438   5.305
 3540DLPE   NH340235  29.001   7.392   2.972
 3540DLPE   PO440236  29.322   7.269   3.052
 3540DLPE   GL140237  29.280   7.155   3.461
 3540DLPE   GL240238  29.103   7.392   3.483
 3540DLPE   C1A40239  29.537   7.272   3.718
 3540DLPE   D2A40240  29.927   7.136   4.030
 3540DLPE   D3A40241  29.859   6.790   4.260
 3540DLPE   C4A40242  29.761   7.085   4.654
 3540DLPE   C1B40243  28.752   7.354   3.700
 3540DLPE   D2B40244  28.323   7.129   3.986
 3540DLPE   D3B40245  28.431   6.688   3.998
 3540DLPE   C4B40246  28.318   6.446   4.363
 3541DLPE   NH340247  11.106   9.772   2.955
 3541DLPE   PO440248  11.043   9.885   3.262
 3541DLPE   GL140249  10.883   9.685   3.652
 3541DLPE   GL240250  10.841  10.039   3.682
 3541DLPE   C1A40251  10.530   9.582   3.917
 3541DLPE   D2A40252  10.240   9.330   4.246
 3541DLPE   D3A40253  10.386   9.253   4.682
 3541DLPE   C4A40254  10.666   9.357   5.044
 3541DLPE   C1B40255  10.556  10.098   3.975
 3541DLPE   D2B40256  10.117  10.260   4.145
 3541DLPE   D3B40257   9.987  10.429   4.521
 3541DLPE   C4B40258   9.832  10.089   4.833
 3542DLPE   NH340259  22.329  20.304   3.934
 3542DLPE   PO440260  22.097  20.517   3.915
 3542DLPE   GL140261  22.154  20.622   4.344
 3542DLPE   GL240262  22.101  20.344   4.369
 3542DLPE   C1A40263  22.273  20.780   4.785
 3542DLPE   D2A40264  22.489  20.886   5.244
 3542DLPE   D3A40265  22.189  20.550   5.350
 3542DLPE   C4A40266  22.111  20.297   5.805
 3542DLPE   C1B40267  22.041  20.345   4.791
 3542DLPE   D2B40268  22.196  20.070   5.197
 3542DLPE   D3B40269  21.914  19.807   5.426
 3542DLPE   C4B40270  21.595  20.008   5.663
 3543DLPE   NH340271   3.757  29.345   3.401
 3543DLPE   PO440272   3.979  29.608   3.415
 3543DLPE   GL140273   3.772  29.639   3.777
 3543DLPE   GL240274   3.653  29.362   3.850
 3543DLPE   C1A40275   3.808  29.849   4.214
 3543DLPE   D2A40276   3.962  30.067   4.617
 3543DLPE   D3A40277   4.292  30.312   4.919
 3543DLPE   C4A40278   4.507  30.641   5.222
 3543DLPE   C1B40279   3.604  29.093   4.189
 3543DLPE   D2B40280   3.748  28.641   4.396
 3543DLPE   D3B40281   4.005  28.688   4.844
 3543DLPE   C4B40282   4.000  28.364   5.248
 3544DLPE   NH340283   6.023  25.616   3.015
 3544DLPE   PO440284   6.089  25.273   3.085
 3544DLPE   GL140285   5.949  25.306   3.426
 3544DLPE   GL240286   6.168  25.503   3.520
 3544DLPE   C1A40287   5.595  25.391   3.680
 3544DLPE   D2A40288   5.185  25.088   3.852
 3544DLPE   D3A40289   5.236  24.630   4.078
 3544DLPE   C4A40290   4.984  24.670   4.522
 3544DLPE   C1B40291   6.013  25.811   3.811
 3544DLPE   D2B40292   6.028  26.206   4.163
 3544DLPE   D3B40293   6.156  26.239   4.564
 3544DLPE   C4B40294   5.673  26.321   4.560
 3545DLPE   NH340295  34.122   8.481   3.057
 3545DLPE   PO440296  34.318   8.239   3.211
 3545DLPE   GL140297  34.257   8.314   3.569
 3545DLPE   GL240298  34.185   8.611   3.534
 3545DLPE   C1A40299  33.979   8.447   3.931
 3545DLPE   D2A40300  33.726   8.453   4.369
 3545DLPE   D3A40301  33.280   8.316   4.421
 3545DLPE   C4A40302  33.209   8.249   4.865
 3545DLPE   C1B40303  34.376   9.081   3.517
 3545DLPE   D2B40304  34.599   9.521   3.686
 3545DLPE   D3B40305  34.774   9.564   4.082
 3545DLPE   C4B40306  35.197   9.616   4.256
 3546DLPE   NH340307  10.786   5.517   2.939
 3546DLPE   PO440308  11.137   5.611   2.992
 3546DLPE   GL140309  10.984   5.704   3.367
 3546DLPE   GL240310  10.778   5.972   3.219
 3546DLPE   C1A40311  11.029   5.966   3.699
 3546DLPE   D2A40312  11.252   5.779   4.088
 3546DLPE   D3A40313  11.494   5.372   4.150
 3546DLPE   C4A40314  11.782   5.564   3.834
 3546DLPE   C1B40315  10.644   6.298   3.477
 3546DLPE   D2B40316  10.653   6.706   3.697
 3546DLPE   D3B40317  10.960   6.947   3.859
 3546DLPE   C4B40318  11.017   7.325   3.976
 3547DLPE   NH340319  26.405  24.287   2.617
 3547DLPE   PO440320  26.361  24.544   2.867
 3547DLPE   GL140321  26.619  24.765   3.109
 3547DLPE   GL240322  26.485  24.811   3.323
 3547DLPE   C1A40323  26.993  24.805   3.296
 3547DLPE   D2A40324  27.125  25.169   3.659
 3547DLPE   D3A40325  27.072  24.866   3.979
 3547DLPE   C4A40326  26.661  24.975   4.232
 3547DLPE   C1B40327  26.639  25.045   3.693
 3547DLPE   D2B40328  26.922  25.386   4.048
 3547DLPE   D3B40329  26.947  25.321   4.465
 3547DLPE   C4B40330  27.341  25.571   4.458
 3548DLPE   NH340331  24.599   8.657   3.623
 3548DLPE   PO440332  24.713   8.331   3.516
 3548DLPE   GL140333  24.730   8.115   3.842
 3548DLPE   GL240334  24.502   7.905   3.718
 3548DLPE   C1A40335  24.905   8.182   4.231
 3548DLPE   D2A40336  24.937   8.089   4.665
 3548DLPE   D3A40337  24.731   8.270   4.923
 3548DLPE   C4A40338  24.939   8.526   5.244
 3548DLPE   C1B40339  24.423   7.978   4.153
 3548DLPE   D2B40340  24.428   7.951   4.690
 3548DLPE   D3B40341  24.257   7.726   5.023
 3548DLPE   C4B40342  24.700   7.818   5.324
 3549DLPE   NH340343   1.980  30.295   3.385
 3549DLPE   PO440344   1.768  30.081   3.561
 3549DLPE   GL140345   1.913  30.336   3.850
 3549DLPE   GL240346   2.114  30.097   3.906
 3549DLPE   C1A40347   1.692  30.287   4.228
 3549DLPE   D2A40348   1.350  30.435   4.561
 3549DLPE   D3A40349   1.251  30.072   4.882
 3549DLPE   C4A40350   1.071  30.471   5.164
 3549DLPE   C1B40351   2.170  29.946   4.289
 3549DLPE   D2B40352   2.122  29.863   4.755
 3549DLPE   D3B40353   2.246  29.987   5.121
 3549DLPE   C4B40354   2.074  30.414   5.077
 3550DLPE   NH340355  10.983  26.905   2.632
 3550DLPE   PO440356  10.767  27.134   2.737
 3550DLPE   GL140357  10.810  26.855   3.059
 3550DLPE   GL240358  10.682  26.729   3.140
 3550DLPE   C1A40359  11.087  26.884   3.440
 3550DLPE   D2A40360  11.109  26.727   3.890
 3550DLPE   D3A40361  10.958  26.442   4.185
 3550DLPE   C4A40362  10.803  26.722   4.534
 3550DLPE   C1B40363  10.663  26.639   3.573
 3550DLPE   D2B40364  10.672  26.872   4.006
 3550DLPE   D3B40365  10.318  27.179   3.837
 3550DLPE   C4B40366   9.857  26.985   3.963
 3551DLPE   NH340367   1.455  17.635   3.562
 3551DLPE   PO440368   1.505  18.007   3.502
 3551DLPE   GL140369   1.689  17.995   3.878
 3551DLPE   GL240370   1.408  17.940   3.921
 3551DLPE   C1A40371   1.700  17.920   4.278
 3551DLPE   D2A40372   1.492  17.677   4.652
 3551DLPE   D3A40373   1.542  17.391   4.976
 3551DLPE   C4A40374   1.182  17.136   4.883
 3551DLPE   C1B40375   1.197  17.910   4.275
 3551DLPE   D2B40376   1.040  17.466   4.493
 3551DLPE   D3B40377   1.234  17.119   4.280
 3551DLPE   C4B40378   1.362  16.654   4.418
 3552DLPE   NH340379  10.353   7.945   3.438
 3552DLPE   PO440380  10.525   7.673   3.512
 3552DLPE   GL140381  10.836   7.794   3.742
 3552DLPE   GL240382  10.665   7.632   4.043
 3552DLPE   C1A40383  11.063   8.129   3.752
 3552DLPE   D2A40384  11.018   8.537   4.010
 3552DLPE   D3A40385  10.982   8.674   4.425
 3552DLPE   C4A40386  11.057   8.452   4.851
 3552DLPE   C1B40387  10.828   7.454   4.428
 3552DLPE   D2B40388  10.961   7.199   4.815
 3552DLPE   D3B40389  11.099   7.585   5.028
 3552DLPE   C4B40390  10.778   7.781   5.291
 3553DLPE   NH340391  15.058  14.773   3.017
 3553DLPE   PO440392  14.837  14.566   3.130
 3553DLPE   GL140393  14.857  14.339   3.527
 3553DLPE   GL240394  14.800  14.529   3.666
 3553DLPE   C1A40395  15.003  14.029   3.823
 3553DLPE   D2A40396  14.927  13.918   4.253
 3553DLPE   D3A40397  15.204  14.077   4.459
 3553DLPE   C4A40398  15.372  14.319   4.845
 3553DLPE   C1B40399  14.589  14.461   4.023
 3553DLPE   D2B40400  14.347  14.581   4.426
 3553DLPE   D3B40401  14.167  14.535   4.820
 3553DLPE   C4B40402  13.705  14.675   4.884
 3554DLPE   NH340403  22.068  13.478   3.841
 3554DLPE   PO440404  22.385  13.487   3.693
 3554DLPE   GL140405  22.462  13.484   4.129
 3554DLPE   GL240406  22.402  13.214   4.088
 3554DLPE   C1A40407  22.401  13.556   4.546
 3554DLPE   D2A40408  22.238  13.556   4.988
 3554DLPE   D3A40409  21.949  13.903   5.132
 3554DLPE   C4A40410  22.065  14.339   4.975
 3554DLPE   C1B40411  22.485  13.103   4.500
 3554DLPE   D2B40412  22.737  12.836   4.783
 3554DLPE   D3B40413  22.932  12.677   5.222
 3554DLPE   C4B40414  23.009  12.911   5.635
 3555DLPE   NH340415  19.272  10.808   4.168
 3555DLPE   PO440416  19.020  10.569   4.039
 3555DLPE   GL140417  19.035  10.188   4.200
 3555DLPE   GL240418  19.180   9.999   3.953
 3555DLPE   C1A40419  19.327  10.235   4.510
 3555DLPE   D2A40420  19.526  10.583   4.776
 3555DLPE   D3A40421  19.271  10.937   4.624
 3555DLPE   C4A40422  18.852  11.084   4.753
 3555DLPE   C1B40423  19.459   9.710   4.224
 3555DLPE   D2B40424  19.782   9.414   4.311
 3555DLPE   D3B40425  19.900   9.082   4.549
 3555DLPE   C4B40426  19.991   9.346   4.903
 3556DLPE   NH340427   9.556   7.774   3.241
 3556DLPE   PO440428   9.540   7.418   3.237
 3556DLPE   GL140429   9.696   7.280   3.576
 3556DLPE   GL240430   9.522   7.463   3.624
 3556DLPE   C1A40431   9.532   7.047   3.912
 3556DLPE   D2A40432   9.406   7.193   4.403
 3556DLPE   D3A40433   9.152   6.770   4.351
 3556DLPE   C4A40434   9.459   6.468   4.128
 3556DLPE   C1B40435   9.438   7.546   4.069
 3556DLPE   D2B40436   9.565   8.068   4.207
 3556DLPE   D3B40437   9.739   8.394   4.495
 3556DLPE   C4B40438   9.549   8.787   4.673
 3557DLPE   NH340439  13.475  17.100   3.328
 3557DLPE   PO440440  13.765  17.286   3.502
 3557DLPE   GL140441  13.588  17.369   3.851
 3557DLPE   GL240442  13.347  17.214   3.749
 3557DLPE   C1A40443  13.639  17.532   4.230
 3557DLPE   D2A40444  13.735  17.786   4.639
 3557DLPE   D3A40445  13.451  18.063   4.507
 3557DLPE   C4A40446  13.092  17.736   4.591
 3557DLPE   C1B40447  13.482  17.024   4.140
 3557DLPE   D2B40448  13.547  16.739   4.513
 3557DLPE   D3B40449  13.808  16.482   4.754
 3557DLPE   C4B40450  13.862  16.049   5.029
 3558DLPE   NH340451  18.224   0.322   3.310
 3558DLPE   PO440452  18.403   0.061   3.161
 3558DLPE   GL140453  18.472  -0.203   3.486
 3558DLPE   GL240454  18.181  -0.117   3.529
 3558DLPE   C1A40455  18.744  -0.324   3.872
 3558DLPE   D2A40456  19.003  -0.072   4.278
 3558DLPE   D3A40457  18.955   0.053   4.724
 3558DLPE   C4A40458  18.630   0.071   5.098
 3558DLPE   C1B40459  18.222  -0.368   3.823
 3558DLPE   D2B40460  17.931  -0.574   4.176
 3558DLPE   D3B40461  18.138  -0.907   4.321
 3558DLPE   C4B40462  18.044  -0.846   4.784
 3559DLPE   NH340463  12.911  13.490   3.332
 3559DLPE   PO440464  13.279  13.449   3.380
 3559DLPE   GL140465  13.321  13.515   3.733
 3559DLPE   GL240466  12.966  13.599   3.784
 3559DLPE   C1A40467  13.455  13.352   4.128
 3559DLPE   D2A40468  13.841  13.119   4.272
 3559DLPE   D3A40469  13.728  13.200   4.664
 3559DLPE   C4A40470  13.512  13.290   5.086
 3559DLPE   C1B40471  12.941  13.822   4.169
 3559DLPE   D2B40472  12.925  14.225   4.432
 3559DLPE   D3B40473  12.787  14.357   4.853
 3559DLPE   C4B40474  12.608  14.783   4.735
 3560DLPE   NH340475  18.956  15.055   3.244
 3560DLPE   PO440476  18.600  15.065   3.282
 3560DLPE   GL140477  18.431  14.943   3.658
 3560DLPE   GL240478  18.329  14.622   3.551
 3560DLPE   C1A40479  18.174  14.943   4.034
 3560DLPE   D2A40480  18.093  14.999   4.524
 3560DLPE   D3A40481  18.159  15.377   4.376
 3560DLPE   C4A40482  18.343  15.565   4.015
 3560DLPE   C1B40483  18.319  14.387   3.878
 3560DLPE   D2B40484  17.947  14.155   4.094
 3560DLPE   D3B40485  17.855  13.799   4.327
 3560DLPE   C4B40486  17.408  13.841   4.131
 3561DLPE   NH340487  33.609   4.802   2.736
 3561DLPE   PO440488  33.908   4.804   2.973
 3561DLPE   GL140489  33.777   4.974   3.352
 3561DLPE   GL240490  33.831   4.680   3.456
 3561DLPE   C1A40491  33.929   5.220   3.693
 3561DLPE   D2A40492  33.969   5.519   4.052
 3561DLPE   D3A40493  33.852   5.432   4.527
 3561DLPE   C4A40494  33.913   4.992   4.735
 3561DLPE   C1B40495  34.064   4.720   3.881
 3561DLPE   D2B40496  34.314   5.111   4.163
 3561DLPE   D3B40497  34.751   5.163   4.241
 3561DLPE   C4B40498  34.989   5.441   3.945
 3562DLPE   NH340499   0.205   0.706   3.270
 3562DLPE   PO440500   0.065   1.011   3.333
 3562DLPE   GL140501  -0.101   0.955   3.696
 3562DLPE   GL240502  -0.357   0.831   3.608
 3562DLPE   C1A40503  -0.028   0.662   3.968
 3562DLPE   D2A40504   0.151   0.733   4.425
 3562DLPE   D3A40505  -0.055   0.685   4.761
 3562DLPE   C4A40506  -0.265   0.795   5.125
 3562DLPE   C1B40507  -0.508   0.414   3.777
 3562DLPE   D2B40508  -0.916   0.412   4.067
 3562DLPE   D3B40509  -1.079   0.712   3.820
 3562DLPE   C4B40510  -1.528   0.920   3.878
 3563DLPE   NH340511   0.336  31.600   3.850
 3563DLPE   PO440512   0.118  31.489   4.116
 3563DLPE   GL140513   0.481  31.514   4.358
 3563DLPE   GL240514   0.184  31.549   4.555
 3563DLPE   C1A40515   0.827  31.282   4.543
 3563DLPE   D2A40516   0.937  31.102   5.008
 3563DLPE   D3A40517   1.389  31.099   5.057
 3563DLPE   C4A40518   1.692  31.468   5.009
 3563DLPE   C1B40519   0.099  31.436   4.946
 3563DLPE   D2B40520   0.065  31.338   5.445
 3563DLPE   D3B40521   0.469  31.184   5.512
 3563DLPE   C4B40522   0.269  31.373   5.907
 3564DLPE   NH340523   4.405  31.746   3.563
 3564DLPE   PO440524   4.141  31.946   3.364
 3564DLPE   GL140525   3.786  31.832   3.600
 3564DLPE   GL240526   4.017  31.796   3.806
 3564DLPE   C1A40527   3.556  31.439   3.676
 3564DLPE   D2A40528   3.888  31.167   3.949
 3564DLPE   D3A40529   4.276  31.072   3.837
 3564DLPE   C4A40530   4.489  30.867   4.251
 3564DLPE   C1B40531   3.833  31.671   4.197
 3564DLPE   D2B40532   3.786  31.215   4.425
 3564DLPE   D3B40533   3.705  31.087   4.909
 3564DLPE   C4B40534   3.958  31.256   5.279
 3565DLPE   NH340535  21.327  26.521   3.476
 3565DLPE   PO440536  21.432  26.222   3.524
 3565DLPE   GL140537  21.390  26.037   3.993
 3565DLPE   GL240538  21.142  26.002   4.026
 3565DLPE   C1A40539  21.342  25.697   4.296
 3565DLPE   D2A40540  21.321  25.226   4.369
 3565DLPE   D3A40541  21.088  24.957   4.687
 3565DLPE   C4A40542  21.177  24.769   5.095
 3565DLPE   C1B40543  21.101  26.329   4.336
 3565DLPE   D2B40544  20.888  26.422   4.783
 3565DLPE   D3B40545  20.565  26.281   4.996
 3565DLPE   C4B40546  20.102  26.407   5.262
 3566DLPE   NH340547  12.924  35.748   2.857
 3566DLPE   PO440548  13.028  35.474   3.040
 3566DLPE   GL140549  12.900  35.646   3.391
 3566DLPE   GL240550  12.864  35.405   3.421
 3566DLPE   C1A40551  13.159  35.757   3.758
 3566DLPE   D2A40552  13.639  35.953   3.874
 3566DLPE   D3A40553  13.590  36.393   3.943
 3566DLPE   C4A40554  13.913  36.721   4.158
 3566DLPE   C1B40555  12.928  35.159   3.820
 3566DLPE   D2B40556  12.834  35.135   4.315
 3566DLPE   D3B40557  13.002  35.241   4.717
 3566DLPE   C4B40558  12.933  35.701   4.893
 3567DLPE   NH340559  23.369   9.646   3.357
 3567DLPE   PO440560  23.370   9.317   3.494
 3567DLPE   GL140561  23.140   9.364   3.784
 3567DLPE   GL240562  23.221   9.228   3.914
 3567DLPE   C1A40563  22.862   9.475   4.048
 3567DLPE   D2A40564  22.597   9.368   4.469
 3567DLPE   D3A40565  22.659   9.289   4.885
 3567DLPE   C4A40566  22.325   9.579   4.819
 3567DLPE   C1B40567  23.616   9.100   4.173
 3567DLPE   D2B40568  24.106   8.939   4.087
 3567DLPE   D3B40569  24.322   8.601   4.081
 3567DLPE   C4B40570  24.514   8.454   4.428
 3568DLPE   NH340571   4.565  22.210   3.514
 3568DLPE   PO440572   4.625  21.890   3.625
 3568DLPE   GL140573   4.727  22.089   3.996
 3568DLPE   GL240574   4.476  22.024   4.055
 3568DLPE   C1A40575   4.691  22.514   4.170
 3568DLPE   D2A40576   4.983  22.903   4.342
 3568DLPE   D3A40577   5.380  22.931   4.475
 3568DLPE   C4A40578   5.391  23.103   4.936
 3568DLPE   C1B40579   4.716  21.739   4.303
 3568DLPE   D2B40580   4.870  21.286   4.143
 3568DLPE   D3B40581   5.033  21.113   4.556
 3568DLPE   C4B40582   4.735  20.767   4.583
 3569DLPE   NH340583  20.976   9.673   3.438
 3569DLPE   PO440584  20.701   9.854   3.559
 3569DLPE   GL140585  20.522   9.763   4.007
 3569DLPE   GL240586  20.573  10.029   4.125
 3569DLPE   C1A40587  20.576   9.537   4.347
 3569DLPE   D2A40588  20.501   9.447   4.810
 3569DLPE   D3A40589  20.372   9.467   5.252
 3569DLPE   C4A40590  20.023   9.218   5.456
 3569DLPE   C1B40591  20.683  10.429   4.146
 3569DLPE   D2B40592  20.716  10.922   4.197
 3569DLPE   D3B40593  20.532  11.258   4.178
 3569DLPE   C4B40594  20.123  11.090   4.369
 3570DLPE   NH340595  29.814  18.635   3.195
 3570DLPE   PO440596  30.036  18.864   3.115
 3570DLPE   GL140597  30.178  18.937   3.445
 3570DLPE   GL240598  30.323  19.112   3.495
 3570DLPE   C1A40599  29.982  18.830   3.862
 3570DLPE   D2A40600  29.592  18.875   4.117
 3570DLPE   D3A40601  29.415  18.714   4.477
 3570DLPE   C4A40602  29.057  18.893   4.677
 3570DLPE   C1B40603  30.413  19.166   3.932
 3570DLPE   D2B40604  30.175  19.011   4.370
 3570DLPE   D3B40605  30.282  19.103   4.820
 3570DLPE   C4B40606  30.432  19.342   5.246
 3571DLPE   NH340607   6.064  11.463   3.266
 3571DLPE   PO440608   6.329  11.656   3.334
 3571DLPE   GL140609   6.396  11.607   3.759
 3571DLPE   GL240610   6.441  11.312   3.795
 3571DLPE   C1A40611   6.467  11.948   4.021
 3571DLPE   D2A40612   6.610  12.391   4.192
 3571DLPE   D3A40613   6.640  12.687   4.495
 3571DLPE   C4A40614   6.504  13.022   4.850
 3571DLPE   C1B40615   6.677  11.131   4.225
 3571DLPE   D2B40616   6.842  11.089   4.662
 3571DLPE   D3B40617   7.212  10.919   4.892
 3571DLPE   C4B40618   7.565  11.051   5.123
 3572DLPE   NH340619   4.497  25.899   3.307
 3572DLPE   PO440620   4.269  26.083   3.510
 3572DLPE   GL140621   4.345  25.911   3.965
 3572DLPE   GL240622   4.455  25.705   3.871
 3572DLPE   C1A40623   4.409  26.088   4.361
 3572DLPE   D2A40624   4.416  26.316   4.731
 3572DLPE   D3A40625   4.522  26.607   5.075
 3572DLPE   C4A40626   4.915  26.692   5.339
 3572DLPE   C1B40627   4.421  25.310   4.068
 3572DLPE   D2B40628   4.308  24.862   4.038
 3572DLPE   D3B40629   4.530  24.562   4.195
 3572DLPE   C4B40630   4.366  24.201   4.451
 3573DLPE   NH340631  31.811  13.247   3.293
 3573DLPE   PO440632  31.954  13.551   3.192
 3573DLPE   GL140633  32.100  13.456   3.639
 3573DLPE   GL240634  31.778  13.659   3.583
 3573DLPE   C1A40635  32.448  13.535   3.906
 3573DLPE   D2A40636  32.698  13.599   4.349
 3573DLPE   D3A40637  32.637  13.442   4.760
 3573DLPE   C4A40638  32.175  13.500   4.769
 3573DLPE   C1B40639  31.740  13.866   4.042
 3573DLPE   D2B40640  31.740  13.655   4.522
 3573DLPE   D3B40641  31.820  13.744   5.000
 3573DLPE   C4B40642  31.704  13.289   4.992
 3574DLPE   NH340643  30.632   3.315   3.038
 3574DLPE   PO440644  30.807   3.576   3.078
 3574DLPE   GL140645  30.963   3.564   3.448
 3574DLPE   GL240646  30.962   3.889   3.493
 3574DLPE   C1A40647  30.725   3.571   3.862
 3574DLPE   D2A40648  30.508   3.559   4.340
 3574DLPE   D3A40649  30.442   3.381   4.724
 3574DLPE   C4A40650  30.551   3.414   5.179
 3574DLPE   C1B40651  30.676   4.095   3.843
 3574DLPE   D2B40652  30.693   4.043   4.384
 3574DLPE   D3B40653  30.586   3.832   4.740
 3574DLPE   C4B40654  30.537   3.900   5.208
 3575DLPE   NH340655   2.793  34.869   3.122
 3575DLPE   PO440656   2.643  34.707   3.387
 3575DLPE   GL140657   2.764  34.777   3.815
 3575DLPE   GL240658   2.527  34.686   3.774
 3575DLPE   C1A40659   2.834  34.937   4.265
 3575DLPE   D2A40660   2.964  35.311   4.658
 3575DLPE   D3A40661   3.325  35.367   4.868
 3575DLPE   C4A40662   3.651  35.143   5.172
 3575DLPE   C1B40663   2.447  34.410   4.056
 3575DLPE   D2B40664   2.348  34.092   4.488
 3575DLPE   D3B40665   2.707  34.028   4.742
 3575DLPE   C4B40666   2.695  34.442   5.004
 3576DLPE   NH340667  29.957  14.556   3.619
 3576DLPE   PO440668  29.864  14.877   3.538
 3576DLPE   GL140669  29.666  14.923   3.853
 3576DLPE   GL240670  29.707  15.263   3.835
 3576DLPE   C1A40671  29.965  14.674   4.172
 3576DLPE   D2A40672  30.203  14.451   4.604
 3576DLPE   D3A40673  29.947  14.481   4.960
 3576DLPE   C4A40674  29.549  14.273   4.869
 3576DLPE   C1B40675  29.881  15.395   4.228
 3576DLPE   D2B40676  30.252  15.411   4.535
 3576DLPE   D3B40677  30.339  15.696   4.934
 3576DLPE   C4B40678  30.387  16.010   5.234
 3577DLPE   NH340679  12.801  32.944   3.778
 3577DLPE   PO440680  12.959  32.620   3.761
 3577DLPE   GL140681  12.890  32.483   4.149
 3577DLPE   GL240682  12.974  32.815   4.201
 3577DLPE   C1A40683  12.589  32.164   4.295
 3577DLPE   D2A40684  12.729  32.082   4.786
 3577DLPE   D3A40685  13.032  32.321   4.981
 3577DLPE   C4A40686  12.746  32.610   5.254
 3577DLPE   C1B40687  12.930  33.086   4.529
 3577DLPE   D2B40688  12.584  33.423   4.581
 3577DLPE   D3B40689  12.382  33.701   4.278
 3577DLPE   C4B40690  12.241  34.013   4.598
 3578DLPE   NH340691   3.867   3.773   3.133
 3578DLPE   PO440692   3.932   4.064   3.295
 3578DLPE   GL140693   3.955   3.877   3.670
 3578DLPE   GL240694   3.788   4.099   3.758
 3578DLPE   C1A40695   4.004   3.611   4.023
 3578DLPE   D2A40696   4.107   3.422   4.455
 3578DLPE   D3A40697   4.380   3.541   4.760
 3578DLPE   C4A40698   4.783   3.543   4.952
 3578DLPE   C1B40699   3.963   4.097   4.146
 3578DLPE   D2B40700   4.161   3.924   4.523
 3578DLPE   D3B40701   4.171   4.081   4.940
 3578DLPE   C4B40702   3.907   4.319   5.317
 3579DLPE   NH340703  14.447  33.436   3.836
 3579DLPE   PO440704  14.212  33.708   3.792
 3579DLPE   GL140705  14.286  33.843   4.106
 3579DLPE   GL240706  14.564  33.696   4.164
 3579DLPE   C1A40707  14.095  33.944   4.462
 3579DLPE   D2A40708  13.884  33.960   4.894
 3579DLPE   D3A40709  13.625  33.920   5.230
 3579DLPE   C4A40710  13.577  33.665   5.637
 3579DLPE   C1B40711  14.823  33.978   4.433
 3579DLPE   D2B40712  14.911  34.430   4.658
 3579DLPE   D3B40713  15.117  34.760   4.913
 3579DLPE   C4B40714  14.886  34.631   5.239
 3580DLPE   NH340715  17.834  31.386   3.376
 3580DLPE   PO440716  17.701  31.711   3.484
 3580DLPE   GL140717  17.626  31.788   3.952
 3580DLPE   GL240718  17.399  31.857   3.806
 3580DLPE   C1A40719  17.577  32.170   4.202
 3580DLPE   D2A40720  17.473  32.220   4.788
 3580DLPE   D3A40721  17.337  32.660   4.940
 3580DLPE   C4A40722  17.131  33.023   5.079
 3580DLPE   C1B40723  16.991  31.664   3.954
 3580DLPE   D2B40724  16.616  31.899   4.227
 3580DLPE   D3B40725  16.606  32.065   4.606
 3580DLPE   C4B40726  16.779  31.879   4.912
 3581DLPE   NH340727  30.453   6.525   3.031
 3581DLPE   PO440728  30.584   6.406   3.302
 3581DLPE   GL140729  30.266   6.340   3.490
 3581DLPE   GL240730  30.352   5.999   3.540
 3581DLPE   C1A40731  29.993   6.535   3.811
 3581DLPE   D2A40732  29.794   6.350   4.212
 3581DLPE   D3A40733  29.615   6.192   4.630
 3581DLPE   C4A40734  29.506   6.430   5.061
 3581DLPE   C1B40735  30.052   6.009   3.909
 3581DLPE   D2B40736  30.056   5.876   4.345
 3581DLPE   D3B40737  30.040   5.629   4.695
 3581DLPE   C4B40738  29.877   5.551   5.166
 3582DLPE   NH340739  20.334  10.611   3.492
 3582DLPE   PO440740  20.027  10.492   3.433
 3582DLPE   GL140741  19.917  10.450   3.838
 3582DLPE   GL240742  19.865  10.707   3.964
 3582DLPE   C1A40743  20.146  10.264   4.157
 3582DLPE   D2A40744  20.424  10.046   4.555
 3582DLPE   D3A40745  20.583   9.983   4.931
 3582DLPE   C4A40746  20.851   9.610   5.187
 3582DLPE   C1B40747  19.800  10.660   4.386
 3582DLPE   D2B40748  20.064  10.840   4.798
 3582DLPE   D3B40749  19.987  10.792   5.210
 3582DLPE   C4B40750  19.906  10.884   5.681
 3583DLPE   NH340751   3.340  21.752   3.904
 3583DLPE   PO440752   3.198  21.452   3.973
 3583DLPE   GL140753   3.091  21.473   4.276
 3583DLPE   GL240754   3.306  21.685   4.377
 3583DLPE   C1A40755   3.149  21.173   4.603
 3583DLPE   D2A40756   3.290  21.156   5.063
 3583DLPE   D3A40757   3.158  20.812   5.299
 3583DLPE   C4A40758   2.869  21.108   5.477
 3583DLPE   C1B40759   3.089  21.654   4.746
 3583DLPE   D2B40760   2.806  21.466   5.098
 3583DLPE   D3B40761   2.415  21.340   5.042
 3583DLPE   C4B40762   2.364  21.178   5.498
 3584DLPE   NH340763  31.507  32.615   3.166
 3584DLPE   PO440764  31.184  32.469   3.219
 3584DLPE   GL140765  31.090  32.470   3.565
 3584DLPE   GL240766  30.898  32.655   3.572
 3584DLPE   C1A40767  30.773  32.173   3.755
 3584DLPE   D2A40768  30.988  31.803   4.083
 3584DLPE   D3A40769  31.017  31.912   4.523
 3584DLPE   C4A40770  30.612  31.912   4.740
 3584DLPE   C1B40771  30.519  32.594   3.845
 3584DLPE   D2B40772  30.201  32.580   4.192
 3584DLPE   D3B40773  29.715  32.744   4.226
 3584DLPE   C4B40774  29.621  32.969   4.670
 3585DLPE   NH340775  11.584  23.837   3.148
 3585DLPE   PO440776  11.708  24.109   2.960
 3585DLPE   GL140777  11.428  24.363   3.241
 3585DLPE   GL240778  11.292  24.143   3.323
 3585DLPE   C1A40779  11.207  24.754   3.426
 3585DLPE   D2A40780  10.991  25.059   2.996
 3585DLPE   D3A40781  10.781  25.396   3.147
 3585DLPE   C4A40782  10.368  25.263   3.132
 3585DLPE   C1B40783  11.441  24.058   3.696
 3585DLPE   D2B40784  11.877  23.903   3.911
 3585DLPE   D3B40785  12.116  23.564   4.032
 3585DLPE   C4B40786  12.159  23.476   4.514
 3586DLPE   NH340787  23.053  14.106   3.883
 3586DLPE   PO440788  23.310  13.859   3.969
 3586DLPE   GL140789  23.332  13.588   4.297
 3586DLPE   GL240790  23.161  13.430   4.102
 3586DLPE   C1A40791  23.234  13.746   4.640
 3586DLPE   D2A40792  23.313  13.640   5.127
 3586DLPE   D3A40793  23.074  13.832   5.375
 3586DLPE   C4A40794  23.052  13.967   5.883
 3586DLPE   C1B40795  23.131  13.030   4.193
 3586DLPE   D2B40796  23.041  12.646   4.477
 3586DLPE   D3B40797  23.300  12.705   4.799
 3586DLPE   C4B40798  23.707  12.508   4.634
 3587DLPE   NH340799  14.041  32.064   3.865
 3587DLPE   PO440800  14.250  32.215   3.608
 3587DLPE   GL140801  14.392  32.332   4.006
 3587DLPE   GL240802  14.204  32.522   4.039
 3587DLPE   C1A40803  14.313  32.118   4.374
 3587DLPE   D2A40804  14.291  32.145   4.837
 3587DLPE   D3A40805  14.377  31.873   5.120
 3587DLPE   C4A40806  14.670  32.103   5.445
 3587DLPE   C1B40807  14.140  32.565   4.474
 3587DLPE   D2B40808  14.122  32.613   4.954
 3587DLPE   D3B40809  14.145  32.300   5.306
 3587DLPE   C4B40810  14.194  31.968   5.615
 3588DLPE   NH340811   2.134  32.246   3.664
 3588DLPE   PO440812   2.167  32.613   3.703
 3588DLPE   GL140813   2.213  32.589   4.192
 3588DLPE   GL240814   2.483  32.768   4.216
 3588DLPE   C1A40815   2.121  32.218   4.290
 3588DLPE   D2A40816   2.163  32.008   4.793
 3588DLPE   D3A40817   1.986  32.054   5.195
 3588DLPE   C4A40818   2.304  32.119   5.532
 3588DLPE   C1B40819   2.730  32.503   4.509
 3588DLPE   D2B40820   2.981  32.564   4.908
 3588DLPE   D3B40821   2.942  32.128   5.034
 3588DLPE   C4B40822   3.213  31.872   5.328
 3589DLPE   NH340823  12.165  35.268   3.033
 3589DLPE   PO440824  12.407  35.359   3.305
 3589DLPE   GL140825  12.172  35.288   3.626
 3589DLPE   GL240826  12.217  34.990   3.498
 3589DLPE   C1A40827  12.100  35.306   4.052
 3589DLPE   D2A40828  11.629  35.266   4.368
 3589DLPE   D3A40829  11.485  35.505   4.718
 3589DLPE   C4A40830  11.095  35.843   4.703
 3589DLPE   C1B40831  12.116  34.675   3.822
 3589DLPE   D2B40832  12.013  34.562   4.259
 3589DLPE   D3B40833  11.819  34.339   4.618
 3589DLPE   C4B40834  11.506  34.554   4.298
 3590DLPE   NH340835  15.436  21.289   3.428
 3590DLPE   PO440836  15.697  21.138   3.630
 3590DLPE   GL140837  15.581  20.873   3.986
 3590DLPE   GL240838  15.314  20.987   3.931
 3590DLPE   C1A40839  15.311  20.632   4.266
 3590DLPE   D2A40840  14.982  20.862   4.426
 3590DLPE   D3A40841  14.640  21.103   4.208
 3590DLPE   C4A40842  14.295  21.376   4.385
 3590DLPE   C1B40843  15.089  21.274   4.188
 3590DLPE   D2B40844  14.797  21.316   4.585
 3590DLPE   D3B40845  14.633  21.147   4.903
 3590DLPE   C4B40846  14.721  21.481   5.238
 3591DLPE   NH340847  32.840  33.967   3.093
 3591DLPE   PO440848  33.070  34.114   3.244
 3591DLPE   GL140849  32.868  34.532   3.421
 3591DLPE   GL240850  33.107  34.546   3.546
 3591DLPE   C1A40851  32.476  34.599   3.633
 3591DLPE   D2A40852  32.209  34.910   4.012
 3591DLPE   D3A40853  32.458  34.725   4.302
 3591DLPE   C4A40854  32.620  34.397   4.546
 3591DLPE   C1B40855  32.943  34.566   3.958
 3591DLPE   D2B40856  33.030  34.601   4.425
 3591DLPE   D3B40857  33.148  34.880   4.716
 3591DLPE   C4B40858  32.990  34.950   5.131
 3592DLPE   NH340859  16.863  32.595   2.941
 3592DLPE   PO440860  17.138  32.439   3.021
 3592DLPE   GL140861  17.015  32.328   3.442
 3592DLPE   GL240862  16.904  32.594   3.398
 3592DLPE   C1A40863  17.072  32.262   3.892
 3592DLPE   D2A40864  17.089  32.038   4.369
 3592DLPE   D3A40865  17.291  31.798   4.684
 3592DLPE   C4A40866  17.202  31.594   5.092
 3592DLPE   C1B40867  16.946  32.930   3.711
 3592DLPE   D2B40868  16.703  33.297   3.926
 3592DLPE   D3B40869  16.891  33.513   4.267
 3592DLPE   C4B40870  17.166  33.523   3.825
 3593DLPE   NH340871  33.239  21.994   3.325
 3593DLPE   PO440872  33.475  21.887   3.503
 3593DLPE   GL140873  33.431  21.998   3.840
 3593DLPE   GL240874  33.639  21.789   3.976
 3593DLPE   C1A40875  33.171  21.889   4.196
 3593DLPE   D2A40876  33.094  21.576   4.611
 3593DLPE   D3A40877  33.238  21.623   5.055
 3593DLPE   C4A40878  33.359  21.723   5.531
 3593DLPE   C1B40879  33.503  21.454   4.228
 3593DLPE   D2B40880  33.215  21.114   4.373
 3593DLPE   D3B40881  33.081  21.144   4.839
 3593DLPE   C4B40882  33.223  21.201   5.305
 3594DLPE   NH340883  14.007   5.403   3.500
 3594DLPE   PO440884  14.309   5.330   3.355
 3594DLPE   GL140885  14.496   5.166   3.682
 3594DLPE   GL240886  14.391   4.913   3.679
 3594DLPE   C1A40887  14.481   5.397   3.996
 3594DLPE   D2A40888  14.528   5.410   4.559
 3594DLPE   D3A40889  14.561   5.122   4.839
 3594DLPE   C4A40890  14.650   5.431   5.154
 3594DLPE   C1B40891  14.241   4.787   4.058
 3594DLPE   D2B40892  14.103   4.428   4.468
 3594DLPE   D3B40893  13.825   4.608   4.839
 3594DLPE   C4B40894  13.729   4.450   5.250
 3595DLPE   NH340895  13.461   5.361   3.187
 3595DLPE   PO440896  13.664   5.654   3.333
 3595DLPE   GL140897  13.493   5.538   3.647
 3595DLPE   GL240898  13.326   5.288   3.602
 3595DLPE   C1A40899  13.423   5.552   4.080
 3595DLPE   D2A40900  13.567   5.346   4.480
 3595DLPE   D3A40901  13.710   5.203   4.866
 3595DLPE   C4A40902  13.718   5.300   5.296
 3595DLPE   C1B40903  12.977   5.309   3.887
 3595DLPE   D2B40904  12.583   5.482   4.099
 3595DLPE   D3B40905  12.135   5.522   4.253
 3595DLPE   C4B40906  12.056   5.868   4.559
 3596DLPE   NH340907  14.642  16.312   3.707
 3596DLPE   PO440908  14.655  15.982   3.591
 3596DLPE   GL140909  14.754  15.810   4.000
 3596DLPE   GL240910  14.998  15.723   3.826
 3596DLPE   C1A40911  14.489  15.699   4.403
 3596DLPE   D2A40912  14.130  15.985   4.587
 3596DLPE   D3A40913  13.695  15.988   4.435
 3596DLPE   C4A40914  13.392  15.945   4.003
 3596DLPE   C1B40915  14.992  15.428   4.187
 3596DLPE   D2B40916  14.877  15.373   4.706
 3596DLPE   D3B40917  15.035  15.054   4.916
 3596DLPE   C4B40918  15.459  14.811   4.924
 3597DLPE   NH340919  26.806   6.387   3.128
 3597DLPE   PO440920  27.117   6.339   2.979
 3597DLPE   GL140921  27.195   6.043   3.363
 3597DLPE   GL240922  27.287   6.316   3.469
 3597DLPE   C1A40923  27.405   5.878   3.792
 3597DLPE   D2A40924  27.801   5.929   4.069
 3597DLPE   D3A40925  27.833   5.803   4.459
 3597DLPE   C4A40926  28.179   6.073   4.617
 3597DLPE   C1B40927  27.026   6.281   3.848
 3597DLPE   D2B40928  26.799   6.407   4.324
 3597DLPE   D3B40929  26.854   5.999   4.547
 3597DLPE   C4B40930  26.619   6.221   4.928
 3598DLPE   NH340931   7.787  27.485   3.073
 3598DLPE   PO440932   7.776  27.160   2.943
 3598DLPE   GL140933   8.031  26.945   3.225
 3598DLPE   GL240934   8.004  27.175   3.373
 3598DLPE   C1A40935   8.426  26.932   3.376
 3598DLPE   D2A40936   8.815  26.982   3.725
 3598DLPE   D3A40937   8.949  26.887   4.137
 3598DLPE   C4A40938   8.657  26.849   4.507
 3598DLPE   C1B40939   7.947  27.071   3.796
 3598DLPE   D2B40940   7.782  26.883   4.250
 3598DLPE   D3B40941   7.754  26.915   4.704
 3598DLPE   C4B40942   8.174  26.949   4.838
 3599DLPE   NH340943  33.767  27.429   3.919
 3599DLPE   PO440944  33.779  27.186   3.636
 3599DLPE   GL140945  33.704  26.979   3.921
 3599DLPE   GL240946  33.826  26.759   3.877
 3599DLPE   C1A40947  33.481  26.851   4.279
 3599DLPE   D2A40948  33.547  27.035   4.788
 3599DLPE   D3A40949  33.323  26.918   5.175
 3599DLPE   C4A40950  33.493  26.671   5.529
 3599DLPE   C1B40951  33.981  26.613   4.235
 3599DLPE   D2B40952  33.951  26.622   4.738
 3599DLPE   D3B40953  33.753  26.644   5.112
 3599DLPE   C4B40954  33.376  26.383   5.080
 3600DLPE   NH340955   7.778  34.259   2.788
 3600DLPE   PO440956   7.893  33.986   3.041
 3600DLPE   GL140957   7.992  34.071   3.505
 3600DLPE   GL240958   8.123  33.808   3.460
 3600DLPE   C1A40959   8.073  34.207   3.937
 3600DLPE   D2A40960   8.269  34.380   4.359
 3600DLPE   D3A40961   8.444  34.711   4.707
 3600DLPE   C4A40962   8.475  34.358   5.058
 3600DLPE   C1B40963   8.114  33.635   3.907
 3600DLPE   D2B40964   8.017  33.888   4.282
 3600DLPE   D3B40965   7.881  33.865   4.638
 3600DLPE   C4B40966   8.024  33.880   5.048
 3601DLPE   NH340967  33.030   2.643   2.802
 3601DLPE   PO440968  32.868   2.524   3.085
 3601DLPE   GL140969  32.958   2.820   3.435
 3601DLPE   GL240970  32.855   2.563   3.500
 3601DLPE   C1A40971  33.046   3.021   3.816
 3601DLPE   D2A40972  32.863   3.168   4.270
 3601DLPE   D3A40973  33.237   3.349   4.517
 3601DLPE   C4A40974  33.645   3.556   4.484
 3601DLPE   C1B40975  32.492   2.378   3.704
 3601DLPE   D2B40976  32.574   2.194   4.169
 3601DLPE   D3B40977  32.534   2.404   4.624
 3601DLPE   C4B40978  32.663   2.593   4.988
 3602DLPE   NH340979  35.672   5.461   3.309
 3602DLPE   PO440980  35.649   5.126   3.473
 3602DLPE   GL140981  35.872   5.006   3.794
 3602DLPE   GL240982  35.609   5.017   3.957
 3602DLPE   C1A40983  36.160   4.779   3.965
 3602DLPE   D2A40984  36.583   4.813   4.244
 3602DLPE   D3A40985  36.484   4.427   4.389
 3602DLPE   C4A40986  36.766   4.042   4.561
 3602DLPE   C1B40987  35.656   4.996   4.416
 3602DLPE   D2B40988  35.635   5.198   4.820
 3602DLPE   D3B40989  35.655   5.341   5.223
 3602DLPE   C4B40990  35.854   5.801   5.267
 3603DLPE   NH340991  18.251  21.238   3.184
 3603DLPE   PO440992  18.426  21.481   3.374
 3603DLPE   GL140993  18.268  21.670   3.776
 3603DLPE   GL240994  18.496  21.859   3.737
 3603DLPE   C1A40995  18.025  21.760   4.126
 3603DLPE   D2A40996  17.663  21.445   4.417
 3603DLPE   D3A40997  17.525  21.544   4.828
 3603DLPE   C4A40998  17.764  21.270   5.173
 3603DLPE   C1B40999  18.743  21.909   4.059
 3603DLPE   D2B41000  18.981  21.747   4.428
 3603DLPE   D3B41001  19.242  21.445   4.566
 3603DLPE   C4B41002  19.720  21.480   4.361
 3604DLPE   NH341003  13.736  32.837   3.683
 3604DLPE   PO441004  13.861  32.537   3.757
 3604DLPE   GL141005  13.751  32.515   4.155
 3604DLPE   GL241006  13.805  32.714   4.166
 3604DLPE   C1A41007  13.687  32.400   4.574
 3604DLPE   D2A41008  13.428  31.969   4.785
 3604DLPE   D3A41009  13.388  31.731   5.161
 3604DLPE   C4A41010  13.224  32.085   5.422
 3604DLPE   C1B41011  13.770  32.856   4.571
 3604DLPE   D2B41012  13.761  32.940   5.032
 3604DLPE   D3B41013  13.767  32.686   5.424
 3604DLPE   C4B41014  13.600  33.032   5.726
 3605DLPE   NH341015  21.439  28.993   3.336
 3605DLPE   PO441016  21.376  29.063   3.664
 3605DLPE   GL141017  21.368  28.837   4.072
 3605DLPE   GL241018  21.248  29.100   4.185
 3605DLPE   C1A41019  21.612  28.470   4.134
 3605DLPE   D2A41020  21.784  28.469   4.697
 3605DLPE   D3A41021  22.169  28.337   4.842
 3605DLPE   C4A41022  22.307  28.249   5.322
 3605DLPE   C1B41023  20.967  29.065   4.468
 3605DLPE   D2B41024  20.635  28.753   4.579
 3605DLPE   D3B41025  20.467  28.509   4.871
 3605DLPE   C4B41026  20.503  28.748   5.300
 3606DLPE   NH341027  20.108  28.632   3.568
 3606DLPE   PO441028  20.187  28.704   3.906
 3606DLPE   GL141029  20.285  28.365   4.186
 3606DLPE   GL241030  20.039  28.359   4.253
 3606DLPE   C1A41031  20.628  28.283   4.451
 3606DLPE   D2A41032  20.835  28.127   4.888
 3606DLPE   D3A41033  20.747  28.277   5.275
 3606DLPE   C4A41034  20.789  28.484   5.639
 3606DLPE   C1B41035  19.999  28.322   4.681
 3606DLPE   D2B41036  19.926  28.263   5.113
 3606DLPE   D3B41037  19.632  28.100   5.427
 3606DLPE   C4B41038  19.293  27.845   5.579
 3607DLPE   NH341039  20.855  23.010   3.501
 3607DLPE   PO441040  20.610  23.239   3.588
 3607DLPE   GL141041  20.648  23.173   3.984
 3607DLPE   GL241042  20.750  22.930   4.019
 3607DLPE   C1A41043  20.711  23.298   4.377
 3607DLPE   D2A41044  20.351  23.291   4.697
 3607DLPE   D3A41045  20.446  23.503   5.142
 3607DLPE   C4A41046  20.114  23.658   5.427
 3607DLPE   C1B41047  20.958  22.843   4.343
 3607DLPE   D2B41048  21.047  22.497   4.680
 3607DLPE   D3B41049  20.682  22.274   4.647
 3607DLPE   C4B41050  20.465  22.275   5.032
 3608DLPE   NH341051  21.269   8.610   3.128
 3608DLPE   PO441052  21.177   8.294   3.260
 3608DLPE   GL141053  21.224   8.391   3.640
 3608DLPE   GL241054  21.010   8.307   3.784
 3608DLPE   C1A41055  21.554   8.528   3.966
 3608DLPE   D2A41056  21.854   8.826   4.278
 3608DLPE   D3A41057  22.051   8.440   4.455
 3608DLPE   C4A41058  21.974   8.704   4.798
 3608DLPE   C1B41059  21.199   8.321   4.160
 3608DLPE   D2B41060  21.193   8.709   4.353
 3608DLPE   D3B41061  21.446   8.521   4.691
 3608DLPE   C4B41062  21.686   8.459   5.154
 3609DLPE   NH341063  11.664  11.461   3.325
 3609DLPE   PO441064  11.611  11.783   3.366
 3609DLPE   GL141065  11.777  11.757   3.670
 3609DLPE   GL241066  11.840  12.010   3.756
 3609DLPE   C1A41067  11.729  11.544   4.137
 3609DLPE   D2A41068  11.778  11.286   4.574
 3609DLPE   D3A41069  12.168  11.367   4.814
 3609DLPE   C4A41070  12.424  11.111   4.545
 3609DLPE   C1B41071  11.649  12.104   4.169
 3609DLPE   D2B41072  11.613  11.852   4.614
 3609DLPE   D3B41073  11.405  12.109   4.952
 3609DLPE   C4B41074  11.611  12.403   5.265
 3610DLPE   NH341075   3.688   2.610   2.712
 3610DLPE   PO441076   3.709   2.860   2.945
 3610DLPE   GL141077   3.859   2.850   3.377
 3610DLPE   GL241078   3.829   2.620   3.411
 3610DLPE   C1A41079   3.858   2.867   3.845
 3610DLPE   D2A41080   4.089   2.868   4.266
 3610DLPE   D3A41081   4.170   2.996   4.694
 3610DLPE   C4A41082   3.896   3.198   5.060
 3610DLPE   C1B41083   3.940   2.320   3.696
 3610DLPE   D2B41084   4.062   2.343   4.162
 3610DLPE   D3B41085   4.006   2.382   4.552
 3610DLPE   C4B41086   4.346   2.140   4.740
 3611DLPE   NH341087  20.361  11.606   2.904
 3611DLPE   PO441088  20.352  11.316   3.116
 3611DLPE   GL141089  20.242  11.234   3.493
 3611DLPE   GL241090  20.376  11.036   3.601
 3611DLPE   C1A41091  20.036  11.218   3.869
 3611DLPE   D2A41092  19.823  11.487   4.256
 3611DLPE   D3A41093  19.477  11.575   4.565
 3611DLPE   C4A41094  19.517  12.047   4.837
 3611DLPE   C1B41095  20.345  10.781   3.987
 3611DLPE   D2B41096  20.327  10.629   4.432
 3611DLPE   D3B41097  20.530  10.449   4.828
 3611DLPE   C4B41098  20.432  10.430   5.300
 3612DLPE   NH341099   1.006  18.628   3.617
 3612DLPE   PO441100   0.675  18.747   3.564
 3612DLPE   GL141101   0.657  18.902   3.979
 3612DLPE   GL241102   0.416  18.837   3.981
 3612DLPE   C1A41103   0.954  18.844   4.236
 3612DLPE   D2A41104   1.172  18.958   4.606
 3612DLPE   D3A41105   0.786  19.153   4.757
 3612DLPE   C4A41106   0.769  18.747   5.006
 3612DLPE   C1B41107   0.261  19.253   4.120
 3612DLPE   D2B41108  -0.004  19.215   4.572
 3612DLPE   D3B41109  -0.169  18.875   4.952
 3612DLPE   C4B41110   0.182  18.561   5.034
 3613DLPE   NH341111  15.610  27.109   3.153
 3613DLPE   PO441112  15.580  27.421   3.289
 3613DLPE   GL141113  15.647  27.501   3.755
 3613DLPE   GL241114  15.710  27.202   3.742
 3613DLPE   C1A41115  15.340  27.642   3.968
 3613DLPE   D2A41116  15.327  27.432   4.427
 3613DLPE   D3A41117  15.380  27.106   4.759
 3613DLPE   C4A41118  15.776  26.969   5.073
 3613DLPE   C1B41119  15.576  27.055   4.196
 3613DLPE   D2B41120  15.078  26.929   4.336
 3613DLPE   D3B41121  14.873  27.069   4.710
 3613DLPE   C4B41122  14.885  26.759   5.074
 3614DLPE   NH341123   1.693  11.358   3.734
 3614DLPE   PO441124   2.040  11.294   3.712
 3614DLPE   GL141125   2.047  11.131   4.153
 3614DLPE   GL241126   1.909  11.387   4.259
 3614DLPE   C1A41127   1.843  10.800   4.349
 3614DLPE   D2A41128   2.208  10.580   4.622
 3614DLPE   D3A41129   2.132  10.789   4.963
 3614DLPE   C4A41130   1.708  10.674   5.140
 3614DLPE   C1B41131   1.821  11.186   4.671
 3614DLPE   D2B41132   1.700  11.251   5.151
 3614DLPE   D3B41133   1.616  10.971   5.508
 3614DLPE   C4B41134   1.295  11.132   5.774
 3615DLPE   NH341135  29.838  17.464   2.838
 3615DLPE   PO441136  29.783  17.674   3.071
 3615DLPE   GL141137  30.121  17.515   3.310
 3615DLPE   GL241138  30.037  17.793   3.568
 3615DLPE   C1A41139  30.169  17.128   3.527
 3615DLPE   D2A41140  29.988  16.701   3.652
 3615DLPE   D3A41141  29.831  16.543   4.034
 3615DLPE   C4A41142  29.607  16.299   4.356
 3615DLPE   C1B41143  30.193  17.885   3.999
 3615DLPE   D2B41144  30.414  18.123   4.293
 3615DLPE   D3B41145  30.446  18.032   4.659
 3615DLPE   C4B41146  30.129  18.152   5.029
 3616DLPE   NH341147   0.656  34.562   3.315
 3616DLPE   PO441148   0.959  34.689   3.234
 3616DLPE   GL141149   1.217  34.668   3.596
 3616DLPE   GL241150   1.212  34.420   3.715
 3616DLPE   C1A41151   1.179  35.014   3.906
 3616DLPE   D2A41152   1.454  34.991   4.263
 3616DLPE   D3A41153   1.561  34.599   4.495
 3616DLPE   C4A41154   1.308  34.329   4.685
 3616DLPE   C1B41155   1.161  34.483   4.095
 3616DLPE   D2B41156   0.843  34.393   4.465
 3616DLPE   D3B41157   0.496  34.560   4.634
 3616DLPE   C4B41158   0.315  34.464   5.100
 3617DLPE   NH341159  23.213  29.920   2.801
 3617DLPE   PO441160  23.104  29.735   3.123
 3617DLPE   GL141161  23.061  29.699   3.582
 3617DLPE   GL241162  23.279  29.870   3.583
 3617DLPE   C1A41163  22.997  29.338   3.787
 3617DLPE   D2A41164  23.124  29.169   4.233
 3617DLPE   D3A41165  23.367  29.122   4.596
 3617DLPE   C4A41166  23.035  28.957   4.797
 3617DLPE   C1B41167  23.302  29.774   3.978
 3617DLPE   D2B41168  22.964  29.614   4.365
 3617DLPE   D3B41169  23.048  29.713   4.760
 3617DLPE   C4B41170  23.070  29.378   5.098
 3618DLPE   NH341171   0.113   8.576   3.374
 3618DLPE   PO441172   0.033   8.311   3.566
 3618DLPE   GL141173  -0.224   8.341   3.903
 3618DLPE   GL241174  -0.472   8.223   3.849
 3618DLPE   C1A41175  -0.181   8.329   4.297
 3618DLPE   D2A41176  -0.537   8.289   4.580
 3618DLPE   D3A41177  -0.785   8.080   4.965
 3618DLPE   C4A41178  -1.285   8.071   5.118
 3618DLPE   C1B41179  -0.652   8.044   4.186
 3618DLPE   D2B41180  -1.073   8.015   4.458
 3618DLPE   D3B41181  -1.020   8.420   4.613
 3618DLPE   C4B41182  -1.114   8.800   4.863
 3619DLPE   NH341183   8.750   5.713   3.370
 3619DLPE   PO441184   8.895   5.783   3.059
 3619DLPE   GL141185   9.208   5.736   3.274
 3619DLPE   GL241186   9.177   6.038   3.384
 3619DLPE   C1A41187   9.153   5.488   3.663
 3619DLPE   D2A41188   8.999   5.453   4.170
 3619DLPE   D3A41189   8.887   5.248   4.547
 3619DLPE   C4A41190   8.864   5.224   5.014
 3619DLPE   C1B41191   9.196   6.255   3.770
 3619DLPE   D2B41192   8.908   5.848   3.881
 3619DLPE   D3B41193   8.440   5.981   3.882
 3619DLPE   C4B41194   8.418   6.469   3.874
 3620DLPE   NH341195  32.083  21.813   3.437
 3620DLPE   PO441196  32.411  21.884   3.424
 3620DLPE   GL141197  32.391  21.940   3.895
 3620DLPE   GL241198  32.597  21.804   3.992
 3620DLPE   C1A41199  32.259  22.056   4.268
 3620DLPE   D2A41200  32.340  22.006   4.804
 3620DLPE   D3A41201  32.036  21.951   5.091
 3620DLPE   C4A41202  31.541  22.029   5.043
 3620DLPE   C1B41203  32.693  21.859   4.434
 3620DLPE   D2B41204  32.764  21.794   4.945
 3620DLPE   D3B41205  32.731  21.400   5.164
 3620DLPE   C4B41206  32.702  21.329   5.658
 3621DLPE   NH341207   8.579   3.509   2.735
 3621DLPE   PO441208   8.602   3.855   2.845
 3621DLPE   GL141209   8.844   3.846   3.191
 3621DLPE   GL241210   8.773   3.581   3.325
 3621DLPE   C1A41211   8.754   4.014   3.564
 3621DLPE   D2A41212   8.434   4.259   3.890
 3621DLPE   D3A41213   8.450   4.693   3.907
 3621DLPE   C4A41214   8.593   5.134   4.060
 3621DLPE   C1B41215   8.644   3.437   3.720
 3621DLPE   D2B41216   8.290   3.360   4.069
 3621DLPE   D3B41217   8.390   3.420   4.495
 3621DLPE   C4B41218   8.349   3.716   4.930
 3622DLPE   NH341219  16.291  24.227   3.501
 3622DLPE   PO441220  16.586  24.377   3.277
 3622DLPE   GL141221  16.836  24.443   3.613
 3622DLPE   GL241222  16.694  24.677   3.652
 3622DLPE   C1A41223  16.941  24.055   3.821
 3622DLPE   D2A41224  16.817  23.959   4.292
 3622DLPE   D3A41225  16.748  23.959   4.733
 3622DLPE   C4A41226  16.560  23.648   5.005
 3622DLPE   C1B41227  16.621  24.412   4.015
 3622DLPE   D2B41228  16.726  24.420   4.462
 3622DLPE   D3B41229  16.607  24.492   4.932
 3622DLPE   C4B41230  16.722  24.786   5.257
 3623DLPE   NH341231  19.183  29.761   3.401
 3623DLPE   PO441232  19.302  30.108   3.449
 3623DLPE   GL141233  19.134  30.381   3.854
 3623DLPE   GL241234  19.405  30.274   3.900
 3623DLPE   C1A41235  19.014  30.567   4.228
 3623DLPE   D2A41236  18.679  30.624   4.583
 3623DLPE   D3A41237  18.544  30.287   4.956
 3623DLPE   C4A41238  18.530  29.929   5.193
 3623DLPE   C1B41239  19.209  30.099   4.187
 3623DLPE   D2B41240  18.979  30.216   4.635
 3623DLPE   D3B41241  19.292  30.025   4.839
 3623DLPE   C4B41242  18.961  30.171   5.196
 3624DLPE   NH341243   3.423  11.664   4.245
 3624DLPE   PO441244   3.362  11.983   4.192
 3624DLPE   GL141245   3.540  12.292   4.450
 3624DLPE   GL241246   3.665  12.472   4.505
 3624DLPE   C1A41247   3.525  12.166   4.892
 3624DLPE   D2A41248   3.137  11.930   5.089
 3624DLPE   D3A41249   2.708  11.974   5.182
 3624DLPE   C4A41250   2.422  11.828   4.786
 3624DLPE   C1B41251   3.748  12.694   4.949
 3624DLPE   D2B41252   3.736  12.845   5.479
 3624DLPE   D3B41253   3.850  12.409   5.535
 3624DLPE   C4B41254   3.947  12.228   5.926
 3625DLPE   NH341255  19.124  23.685   3.597
 3625DLPE   PO441256  19.115  23.362   3.781
 3625DLPE   GL141257  18.675  23.102   3.918
 3625DLPE   GL241258  18.856  22.945   3.824
 3625DLPE   C1A41259  18.466  22.880   4.295
 3625DLPE   D2A41260  18.480  22.659   4.742
 3625DLPE   D3A41261  18.143  22.751   5.072
 3625DLPE   C4A41262  17.941  23.212   5.142
 3625DLPE   C1B41263  19.041  22.904   4.255
 3625DLPE   D2B41264  18.872  22.962   4.706
 3625DLPE   D3B41265  18.487  23.207   4.663
 3625DLPE   C4B41266  18.286  23.553   4.898
 3626DLPE   NH341267  10.035  23.562   2.275
 3626DLPE   PO441268  10.249  23.724   2.466
 3626DLPE   GL141269  10.312  23.704   2.862
 3626DLPE   GL241270  10.501  23.494   2.774
 3626DLPE   C1A41271  10.447  23.916   3.173
 3626DLPE   D2A41272  10.226  24.417   3.190
 3626DLPE   D3A41273  10.256  24.134   3.561
 3626DLPE   C4A41274  10.298  24.125   4.029
 3626DLPE   C1B41275  10.580  23.395   3.231
 3626DLPE   D2B41276  10.630  23.268   3.700
 3626DLPE   D3B41277  10.539  23.537   4.073
 3626DLPE   C4B41278  10.545  23.640   4.521
 3627DLPE   NH341279   1.138  34.197   3.127
 3627DLPE   PO441280   0.860  34.136   3.329
 3627DLPE   GL141281   0.647  34.074   3.743
 3627DLPE   GL241282   0.805  34.340   3.712
 3627DLPE   C1A41283   0.727  33.950   4.175
 3627DLPE   D2A41284   1.072  33.926   4.601
 3627DLPE   D3A41285   1.219  34.005   5.088
 3627DLPE   C4A41286   1.159  33.609   5.348
 3627DLPE   C1B41287   0.559  34.432   4.063
 3627DLPE   D2B41288   0.300  34.756   4.263
 3627DLPE   D3B41289  -0.065  34.870   4.490
 3627DLPE   C4B41290   0.031  34.877   4.936
 3628DLPE   NH341291  33.187  29.029   3.696
 3628DLPE   PO441292  32.887  29.192   3.676
 3628DLPE   GL141293  32.797  29.338   4.091
 3628DLPE   GL241294  32.918  29.145   4.194
 3628DLPE   C1A41295  32.435  29.295   4.386
 3628DLPE   D2A41296  31.948  29.288   4.533
 3628DLPE   D3A41297  31.583  29.086   4.814
 3628DLPE   C4A41298  31.760  28.771   5.111
 3628DLPE   C1B41299  33.189  28.987   4.560
 3628DLPE   D2B41300  33.188  28.816   5.039
 3628DLPE   D3B41301  33.425  29.017   5.371
 3628DLPE   C4B41302  33.534  29.312   5.701
 3629DLPE   NH341303  10.919  29.986   2.477
 3629DLPE   PO441304  10.903  29.774   2.769
 3629DLPE   GL141305  10.910  30.005   3.122
 3629DLPE   GL241306  11.138  30.176   3.153
 3629DLPE   C1A41307  11.128  29.974   3.562
 3629DLPE   D2A41308  11.396  30.203   3.935
 3629DLPE   D3A41309  11.613  30.139   4.344
 3629DLPE   C4A41310  11.429  30.031   4.783
 3629DLPE   C1B41311  11.239  30.466   3.495
 3629DLPE   D2B41312  11.325  30.720   3.930
 3629DLPE   D3B41313  11.657  30.628   4.252
 3629DLPE   C4B41314  11.588  30.549   4.749
 3630DLPE   NH341315  13.751   9.654   3.268
 3630DLPE   PO441316  14.021   9.541   3.495
 3630DLPE   GL141317  13.924   9.129   3.735
 3630DLPE   GL241318  14.213   9.067   3.798
 3630DLPE   C1A41319  13.686   8.878   4.001
 3630DLPE   D2A41320  13.547   8.517   4.312
 3630DLPE   D3A41321  13.175   8.237   4.423
 3630DLPE   C4A41322  13.377   7.831   4.275
 3630DLPE   C1B41323  14.063   9.142   4.270
 3630DLPE   D2B41324  13.984   9.124   4.793
 3630DLPE   D3B41325  13.709   9.389   5.017
 3630DLPE   C4B41326  13.679   9.143   5.410
 3631DLPE   NH341327  17.588   2.066   2.903
 3631DLPE   PO441328  17.259   2.028   2.974
 3631DLPE   GL141329  17.181   1.966   3.434
 3631DLPE   GL241330  17.105   2.280   3.469
 3631DLPE   C1A41331  16.798   1.808   3.613
 3631DLPE   D2A41332  16.357   1.584   3.599
 3631DLPE   D3A41333  16.304   1.122   3.722
 3631DLPE   C4A41334  15.846   0.942   3.691
 3631DLPE   C1B41335  17.219   2.298   3.905
 3631DLPE   D2B41336  17.057   2.480   4.256
 3631DLPE   D3B41337  16.896   2.460   4.657
 3631DLPE   C4B41338  16.677   2.836   4.864
 3632DLPE   NH341339  31.743  20.930   3.594
 3632DLPE   PO441340  31.946  20.629   3.629
 3632DLPE   GL141341  31.789  20.532   3.973
 3632DLPE   GL241342  31.508  20.623   3.924
 3632DLPE   C1A41343  31.977  20.395   4.363
 3632DLPE   D2A41344  31.689  20.159   4.689
 3632DLPE   D3A41345  31.431  20.141   4.996
 3632DLPE   C4A41346  31.034  20.406   5.130
 3632DLPE   C1B41347  31.286  20.415   4.313
 3632DLPE   D2B41348  31.121  20.138   4.576
 3632DLPE   D3B41349  30.765  20.288   4.702
 3632DLPE   C4B41350  30.534  20.583   5.003
 3633DLPE   NH341351   6.209  28.996   3.125
 3633DLPE   PO441352   6.570  28.922   3.173
 3633DLPE   GL141353   6.561  29.087   3.591
 3633DLPE   GL241354   6.313  28.967   3.599
 3633DLPE   C1A41355   6.739  29.289   3.998
 3633DLPE   D2A41356   6.957  29.599   4.297
 3633DLPE   D3A41357   6.545  29.816   4.330
 3633DLPE   C4A41358   6.087  29.649   4.200
 3633DLPE   C1B41359   6.237  29.171   4.033
 3633DLPE   D2B41360   6.149  29.220   4.513
 3633DLPE   D3B41361   5.853  29.193   4.785
 3633DLPE   C4B41362   5.513  28.923   5.035
 3634DLPE   NH341363  35.391  18.613   4.014
 3634DLPE   PO441364  35.445  18.284   3.859
 3634DLPE   GL141365  35.740  18.203   4.164
 3634DLPE   GL241366  35.893  18.418   4.171
 3634DLPE   C1A41367  35.973  17.851   4.327
 3634DLPE   D2A41368  36.051  17.668   4.719
 3634DLPE   D3A41369  36.080  17.369   5.011
 3634DLPE   C4A41370  36.160  17.369   5.495
 3634DLPE   C1B41371  35.915  18.351   4.616
 3634DLPE   D2B41372  36.092  18.079   4.996
 3634DLPE   D3B41373  36.245  17.941   5.403
 3634DLPE   C4B41374  35.805  17.849   5.552
 3635DLPE   NH341375   5.053  30.273   2.965
 3635DLPE   PO441376   4.831  29.995   3.062
 3635DLPE   GL141377   5.039  29.967   3.388
 3635DLPE   GL241378   5.132  30.216   3.450
 3635DLPE   C1A41379   5.011  29.723   3.787
 3635DLPE   D2A41380   4.951  29.951   4.231
 3635DLPE   D3A41381   4.900  29.833   4.616
 3635DLPE   C4A41382   4.809  30.243   4.838
 3635DLPE   C1B41383   5.015  30.334   3.815
 3635DLPE   D2B41384   4.824  30.448   4.285
 3635DLPE   D3B41385   4.329  30.381   4.401
 3635DLPE   C4B41386   4.058  30.298   4.042
 3636DLPE   NH341387   2.666  17.058   3.134
 3636DLPE   PO441388   2.843  17.301   3.285
 3636DLPE   GL141389   3.063  17.255   3.593
 3636DLPE   GL241390   3.342  17.382   3.480
 3636DLPE   C1A41391   3.037  17.362   4.065
 3636DLPE   D2A41392   3.222  17.369   4.529
 3636DLPE   D3A41393   3.454  17.488   4.824
 3636DLPE   C4A41394   3.697  17.881   4.797
 3636DLPE   C1B41395   3.248  17.808   3.720
 3636DLPE   D2B41396   2.986  18.144   4.036
 3636DLPE   D3B41397   2.720  17.983   4.300
 3636DLPE   C4B41398   2.517  18.044   4.743
 3637DLPE   NH341399  24.510  32.856   3.441
 3637DLPE   PO441400  24.816  32.765   3.537
 3637DLPE   GL141401  24.874  33.006   3.788
 3637DLPE   GL241402  24.604  33.011   3.892
 3637DLPE   C1A41403  25.086  33.037   4.180
 3637DLPE   D2A41404  25.301  33.135   4.612
 3637DLPE   D3A41405  25.495  33.147   5.004
 3637DLPE   C4A41406  25.750  33.096   5.400
 3637DLPE   C1B41407  24.614  33.292   4.290
 3637DLPE   D2B41408  24.914  33.488   4.580
 3637DLPE   D3B41409  25.087  33.814   4.780
 3637DLPE   C4B41410  24.924  33.765   5.223
 3638DLPE   NH341411  32.044  32.709   3.062
 3638DLPE   PO441412  31.958  32.451   3.307
 3638DLPE   GL141413  31.911  32.503   3.699
 3638DLPE   GL241414  32.169  32.437   3.772
 3638DLPE   C1A41415  31.805  32.370   4.147
 3638DLPE   D2A41416  31.958  32.410   4.650
 3638DLPE   D3A41417  31.718  32.319   5.017
 3638DLPE   C4A41418  31.958  32.099   5.377
 3638DLPE   C1B41419  32.352  32.345   4.176
 3638DLPE   D2B41420  32.626  32.473   4.578
 3638DLPE   D3B41421  32.696  32.633   4.985
 3638DLPE   C4B41422  33.124  32.358   5.209
 3639DLPE   NH341423  31.656  10.813   3.306
 3639DLPE   PO441424  31.682  10.899   3.642
 3639DLPE   GL141425  31.521  10.717   4.046
 3639DLPE   GL241426  31.758  10.569   3.930
 3639DLPE   C1A41427  31.412  10.863   4.445
 3639DLPE   D2A41428  31.597  10.616   4.727
 3639DLPE   D3A41429  31.723  10.188   4.898
 3639DLPE   C4A41430  31.600   9.898   5.289
 3639DLPE   C1B41431  31.991  10.439   4.282
 3639DLPE   D2B41432  32.346  10.529   4.628
 3639DLPE   D3B41433  32.701  10.676   4.564
 3639DLPE   C4B41434  32.724  10.810   4.121
 3640DLPE   NH341435  29.257  17.561   3.174
 3640DLPE   PO441436  29.437  17.259   3.133
 3640DLPE   GL141437  29.667  17.290   3.488
 3640DLPE   GL241438  29.421  17.214   3.626
 3640DLPE   C1A41439  29.837  17.399   3.825
 3640DLPE   D2A41440  29.827  17.579   4.238
 3640DLPE   D3A41441  29.610  17.612   4.639
 3640DLPE   C4A41442  29.182  17.693   4.366
 3640DLPE   C1B41443  29.632  16.950   3.887
 3640DLPE   D2B41444  29.455  16.751   4.301
 3640DLPE   D3B41445  29.853  16.757   4.480
 3640DLPE   C4B41446  29.864  16.855   4.934
 3641DLPE   NH341447   7.520  22.901   3.247
 3641DLPE   PO441448   7.245  22.745   3.303
 3641DLPE   GL141449   7.356  22.670   3.731
 3641DLPE   GL241450   7.578  22.770   3.724
 3641DLPE   C1A41451   7.543  22.351   4.044
 3641DLPE   D2A41452   7.444  21.852   4.125
 3641DLPE   D3A41453   7.148  22.157   4.414
 3641DLPE   C4A41454   6.962  22.556   4.594
 3641DLPE   C1B41455   7.684  22.832   4.166
 3641DLPE   D2B41456   7.501  22.558   4.543
 3641DLPE   D3B41457   7.788  22.879   4.685
 3641DLPE   C4B41458   8.031  22.806   5.061
 3642DLPE   NH341459  13.406  31.203   3.528
 3642DLPE   PO441460  13.585  30.894   3.505
 3642DLPE   GL141461  13.728  30.969   3.866
 3642DLPE   GL241462  13.968  30.794   3.852
 3642DLPE   C1A41463  13.480  31.174   4.097
 3642DLPE   D2A41464  13.378  31.135   4.593
 3642DLPE   D3A41465  13.217  31.142   5.032
 3642DLPE   C4A41466  12.849  31.327   5.320
 3642DLPE   C1B41467  13.869  30.925   4.290
 3642DLPE   D2B41468  13.710  30.784   4.677
 3642DLPE   D3B41469  13.874  30.635   5.016
 3642DLPE   C4B41470  13.859  30.501   5.482
 3643DLPE   NH341471   2.867  14.903   3.798
 3643DLPE   PO441472   3.165  14.889   3.882
 3643DLPE   GL141473   3.392  14.844   4.310
 3643DLPE   GL241474   3.202  15.055   4.317
 3643DLPE   C1A41475   3.530  14.750   4.755
 3643DLPE   D2A41476   3.910  14.641   5.041
 3643DLPE   D3A41477   4.136  14.739   5.375
 3643DLPE   C4A41478   4.308  14.661   5.827
 3643DLPE   C1B41479   3.070  15.170   4.688
 3643DLPE   D2B41480   3.315  15.336   5.066
 3643DLPE   D3B41481   3.692  15.596   5.155
 3643DLPE   C4B41482   3.990  15.885   5.430
 3644DLPE   NH341483   7.501  29.866   3.332
 3644DLPE   PO441484   7.579  30.155   3.422
 3644DLPE   GL141485   7.468  30.167   3.834
 3644DLPE   GL241486   7.731  30.089   3.959
 3644DLPE   C1A41487   7.393  30.420   4.213
 3644DLPE   D2A41488   7.288  30.484   4.733
 3644DLPE   D3A41489   6.991  30.149   4.567
 3644DLPE   C4A41490   7.238  29.741   4.739
 3644DLPE   C1B41491   7.976  30.101   4.270
 3644DLPE   D2B41492   8.203  30.446   4.555
 3644DLPE   D3B41493   7.849  30.583   4.824
 3644DLPE   C4B41494   7.707  30.860   5.269
 3645DLPE   NH341495  16.499   4.971   3.723
 3645DLPE   PO441496  16.222   5.053   3.915
 3645DLPE   GL141497  16.379   4.920   4.258
 3645DLPE   GL241498  16.662   4.994   4.184
 3645DLPE   C1A41499  16.331   4.910   4.648
 3645DLPE   D2A41500  16.195   4.864   5.201
 3645DLPE   D3A41501  16.457   4.964   5.646
 3645DLPE   C4A41502  16.831   5.278   5.610
 3645DLPE   C1B41503  16.780   5.113   4.598
 3645DLPE   D2B41504  16.603   5.157   5.042
 3645DLPE   D3B41505  16.671   4.755   5.100
 3645DLPE   C4B41506  16.964   4.646   5.486
 3646DLPE   NH341507  25.451   7.913   3.568
 3646DLPE   PO441508  25.126   7.827   3.651
 3646DLPE   GL141509  25.238   7.787   4.109
 3646DLPE   GL241510  25.366   8.080   4.069
 3646DLPE   C1A41511  25.266   7.733   4.508
 3646DLPE   D2A41512  25.492   7.559   4.928
 3646DLPE   D3A41513  25.867   7.410   5.178
 3646DLPE   C4A41514  25.933   7.639   5.580
 3646DLPE   C1B41515  25.780   8.018   4.164
 3646DLPE   D2B41516  25.868   7.838   4.636
 3646DLPE   D3B41517  25.957   7.880   5.042
 3646DLPE   C4B41518  26.264   8.176   5.316
 3647DLPE   NH341519  22.872  31.150   3.275
 3647DLPE   PO441520  23.146  30.964   3.235
 3647DLPE   GL141521  23.125  30.584   3.379
 3647DLPE   GL241522  22.996  30.414   3.400
 3647DLPE   C1A41523  23.272  30.365   3.803
 3647DLPE   D2A41524  23.130  30.220   4.168
 3647DLPE   D3A41525  23.351  29.994   4.465
 3647DLPE   C4A41526  23.685  30.052   4.192
 3647DLPE   C1B41527  22.816  30.174   3.722
 3647DLPE   D2B41528  22.653  29.830   3.985
 3647DLPE   D3B41529  22.619  29.380   4.111
 3647DLPE   C4B41530  22.624  28.954   4.134
 3648DLPE   NH341531  14.654  33.825   3.593
 3648DLPE   PO441532  14.871  34.067   3.461
 3648DLPE   GL141533  14.977  34.075   3.802
 3648DLPE   GL241534  14.716  34.011   3.968
 3648DLPE   C1A41535  15.418  34.035   3.910
 3648DLPE   D2A41536  15.906  33.910   3.654
 3648DLPE   D3A41537  16.340  34.139   3.659
 3648DLPE   C4A41538  16.716  33.948   3.985
 3648DLPE   C1B41539  14.792  34.380   4.087
 3648DLPE   D2B41540  15.094  34.781   4.292
 3648DLPE   D3B41541  15.124  35.115   4.538
 3648DLPE   C4B41542  15.021  35.363   4.944
 3649DLPE   NH341543  23.411  11.392   4.022
 3649DLPE   PO441544  23.367  11.175   3.771
 3649DLPE   GL141545  23.463  10.855   3.972
 3649DLPE   GL241546  23.237  10.707   4.035
 3649DLPE   C1A41547  23.792  10.735   4.266
 3649DLPE   D2A41548  23.691  10.612   4.768
 3649DLPE   D3A41549  23.984  10.925   4.986
 3649DLPE   C4A41550  24.096  10.797   5.482
 3649DLPE   C1B41551  23.329  10.538   4.399
 3649DLPE   D2B41552  23.070  10.265   4.748
 3649DLPE   D3B41553  23.269  10.024   5.088
 3649DLPE   C4B41554  23.571   9.919   5.423
 3650DLPE   NH341555  33.477  26.725   3.523
 3650DLPE   PO441556  33.448  26.445   3.708
 3650DLPE   GL141557  33.498  26.420   4.127
 3650DLPE   GL241558  33.713  26.217   4.071
 3650DLPE   C1A41559  33.443  26.483   4.601
 3650DLPE   D2A41560  33.112  26.746   4.806
 3650DLPE   D3A41561  32.926  26.607   5.194
 3650DLPE   C4A41562  32.609  26.288   5.290
 3650DLPE   C1B41563  33.828  26.129   4.537
 3650DLPE   D2B41564  33.778  26.142   4.993
 3650DLPE   D3B41565  33.859  26.157   5.448
 3650DLPE   C4B41566  33.762  25.860   5.769
 3651DLPE   NH341567  23.924   5.292   3.335
 3651DLPE   PO441568  23.767   5.571   3.496
 3651DLPE   GL141569  23.727   5.666   3.955
 3651DLPE   GL241570  24.009   5.586   4.033
 3651DLPE   C1A41571  23.333   5.761   4.168
 3651DLPE   D2A41572  23.062   5.949   4.533
 3651DLPE   D3A41573  23.294   6.255   4.744
 3651DLPE   C4A41574  23.258   6.085   5.121
 3651DLPE   C1B41575  23.982   5.661   4.455
 3651DLPE   D2B41576  23.645   5.870   4.619
 3651DLPE   D3B41577  23.625   5.714   4.986
 3651DLPE   C4B41578  23.383   5.328   5.033
 3652DLPE   NH341579  30.305  11.977   3.612
 3652DLPE   PO441580  29.960  12.128   3.579
 3652DLPE   GL141581  29.826  12.145   3.958
 3652DLPE   GL241582  30.052  12.153   4.097
 3652DLPE   C1A41583  29.535  12.246   4.296
 3652DLPE   D2A41584  29.342  12.203   4.722
 3652DLPE   D3A41585  29.169  12.367   5.123
 3652DLPE   C4A41586  28.866  12.148   5.450
 3652DLPE   C1B41587  30.019  11.784   4.334
 3652DLPE   D2B41588  29.774  11.963   4.679
 3652DLPE   D3B41589  29.722  11.806   5.052
 3652DLPE   C4B41590  29.959  11.475   5.256
 3653DLPE   NH341591  23.943  30.834   3.317
 3653DLPE   PO441592  23.608  30.696   3.290
 3653DLPE   GL141593  23.592  30.730   3.729
 3653DLPE   GL241594  23.746  30.427   3.815
 3653DLPE   C1A41595  23.337  30.978   4.053
 3653DLPE   D2A41596  23.259  31.108   4.477
 3653DLPE   D3A41597  23.550  31.317   4.855
 3653DLPE   C4A41598  24.046  31.415   4.866
 3653DLPE   C1B41599  23.716  30.019   3.621
 3653DLPE   D2B41600  23.806  29.606   3.831
 3653DLPE   D3B41601  23.993  29.205   3.671
 3653DLPE   C4B41602  24.118  28.992   3.312
 3654DLPE   NH341603   6.005  33.137   2.722
 3654DLPE   PO441604   6.129  33.414   2.883
 3654DLPE   GL141605   6.104  33.361   3.319
 3654DLPE   GL241606   5.775  33.327   3.195
 3654DLPE   C1A41607   6.380  33.201   3.635
 3654DLPE   D2A41608   6.904  33.368   3.706
 3654DLPE   D3A41609   7.227  33.440   3.994
 3654DLPE   C4A41610   6.945  33.413   4.394
 3654DLPE   C1B41611   5.687  33.513   3.610
 3654DLPE   D2B41612   5.736  33.982   3.860
 3654DLPE   D3B41613   5.681  34.405   3.967
 3654DLPE   C4B41614   5.661  34.162   4.406
 3655DLPE   NH341615  22.181   9.273   3.540
 3655DLPE   PO441616  22.513   9.221   3.505
 3655DLPE   GL141617  22.488   9.301   3.890
 3655DLPE   GL241618  22.446   9.596   3.908
 3655DLPE   C1A41619  22.205   9.228   4.176
 3655DLPE   D2A41620  22.061   9.137   4.631
 3655DLPE   D3A41621  22.215   9.120   5.056
 3655DLPE   C4A41622  22.622   8.948   5.285
 3655DLPE   C1B41623  22.490   9.836   4.309
 3655DLPE   D2B41624  22.595  10.047   4.752
 3655DLPE   D3B41625  22.764   9.979   5.139
 3655DLPE   C4B41626  22.712   9.567   5.393
 3656DLPE   NH341627  30.921  17.213   3.420
 3656DLPE   PO441628  31.270  17.107   3.412
 3656DLPE   GL141629  31.163  17.177   3.814
 3656DLPE   GL241630  31.021  16.886   3.789
 3656DLPE   C1A41631  31.273  17.061   4.213
 3656DLPE   D2A41632  31.195  17.042   4.711
 3656DLPE   D3A41633  31.275  17.265   5.148
 3656DLPE   C4A41634  31.230  16.945   5.517
 3656DLPE   C1B41635  30.859  16.840   4.213
 3656DLPE   D2B41636  30.880  16.651   4.694
 3656DLPE   D3B41637  30.989  16.324   4.862
 3656DLPE   C4B41638  31.291  15.992   5.028
 3657DLPE   NH341639  29.251  10.937   3.400
 3657DLPE   PO441640  29.326  11.289   3.409
 3657DLPE   GL141641  29.443  11.339   3.851
 3657DLPE   GL241642  29.234  11.496   3.858
 3657DLPE   C1A41643  29.718  11.196   4.196
 3657DLPE   D2A41644  29.973  10.913   4.515
 3657DLPE   D3A41645  30.084  10.465   4.704
 3657DLPE   C4A41646  29.819  10.536   5.033
 3657DLPE   C1B41647  28.845  11.491   4.111
 3657DLPE   D2B41648  28.540  11.142   4.182
 3657DLPE   D3B41649  28.346  10.907   4.508
 3657DLPE   C4B41650  28.125  10.803   4.903
 3658DLPE   NH341651  20.938  29.147   3.860
 3658DLPE   PO441652  20.752  29.395   3.927
 3658DLPE   GL141653  20.988  29.500   4.248
 3658DLPE   GL241654  21.070  29.751   4.202
 3658DLPE   C1A41655  20.955  29.603   4.677
 3658DLPE   D2A41656  21.056  29.802   5.028
 3658DLPE   D3A41657  21.069  29.586   5.428
 3658DLPE   C4A41658  21.366  29.566   5.768
 3658DLPE   C1B41659  21.141  30.057   4.564
 3658DLPE   D2B41660  21.244  30.439   4.908
 3658DLPE   D3B41661  21.507  30.653   5.165
 3658DLPE   C4B41662  21.543  30.834   5.556
 3659DLPE   NH341663  18.214  14.808   3.183
 3659DLPE   PO441664  18.105  14.528   3.064
 3659DLPE   GL141665  17.953  14.388   3.436
 3659DLPE   GL241666  17.867  14.614   3.538
 3659DLPE   C1A41667  18.116  13.993   3.585
 3659DLPE   D2A41668  17.783  13.695   3.843
 3659DLPE   D3A41669  17.893  13.227   3.907
 3659DLPE   C4A41670  18.052  13.104   4.323
 3659DLPE   C1B41671  17.786  14.580   3.935
 3659DLPE   D2B41672  18.089  14.527   4.333
 3659DLPE   D3B41673  18.479  14.408   4.311
 3659DLPE   C4B41674  18.580  14.801   4.594
 3660DLPE   NH341675   3.737  26.106   3.462
 3660DLPE   PO441676   3.819  26.406   3.471
 3660DLPE   GL141677   4.021  26.594   3.715
 3660DLPE   GL241678   4.288  26.521   3.715
 3660DLPE   C1A41679   4.071  26.537   4.205
 3660DLPE   D2A41680   4.355  26.804   4.481
 3660DLPE   D3A41681   4.475  27.077   4.800
 3660DLPE   C4A41682   4.900  27.257   4.833
 3660DLPE   C1B41683   4.564  26.361   4.037
 3660DLPE   D2B41684   4.864  26.459   4.444
 3660DLPE   D3B41685   4.970  26.712   4.824
 3660DLPE   C4B41686   5.395  26.955   4.860
 3661DLPE   NH341687  31.102  18.327   3.310
 3661DLPE   PO441688  30.784  18.427   3.456
 3661DLPE   GL141689  30.723  18.054   3.612
 3661DLPE   GL241690  30.432  18.064   3.664
 3661DLPE   C1A41691  30.661  17.832   4.004
 3661DLPE   D2A41692  30.808  17.781   4.429
 3661DLPE   D3A41693  31.161  17.512   4.695
 3661DLPE   C4A41694  31.368  17.789   5.052
 3661DLPE   C1B41695  30.110  18.338   3.806
 3661DLPE   D2B41696  29.981  18.508   4.274
 3661DLPE   D3B41697  30.219  18.582   4.596
 3661DLPE   C4B41698  29.775  18.673   4.794
 3662DLPE   NH341699   2.596  16.117   3.395
 3662DLPE   PO441700   2.270  16.191   3.523
 3662DLPE   GL141701   2.388  16.325   3.891
 3662DLPE   GL241702   2.613  16.211   3.906
 3662DLPE   C1A41703   2.153  16.508   4.230
 3662DLPE   D2A41704   2.119  16.750   4.662
 3662DLPE   D3A41705   2.092  16.947   5.044
 3662DLPE   C4A41706   1.838  16.626   5.305
 3662DLPE   C1B41707   2.984  16.377   4.146
 3662DLPE   D2B41708   3.415  16.539   4.216
 3662DLPE   D3B41709   3.622  16.896   4.359
 3662DLPE   C4B41710   3.764  16.992   4.818
 3663DLPE   NH341711  21.575  21.661   3.804
 3663DLPE   PO441712  21.839  21.530   3.635
 3663DLPE   GL141713  22.202  21.738   3.727
 3663DLPE   GL241714  22.294  21.546   3.976
 3663DLPE   C1A41715  22.548  21.943   3.943
 3663DLPE   D2A41716  22.860  21.971   4.352
 3663DLPE   D3A41717  22.806  22.199   4.775
 3663DLPE   C4A41718  22.719  22.492   5.168
 3663DLPE   C1B41719  22.624  21.545   4.301
 3663DLPE   D2B41720  22.779  21.667   4.772
 3663DLPE   D3B41721  23.042  21.527   5.025
 3663DLPE   C4B41722  22.994  21.070   5.136
 3664DLPE   NH341723  35.700  16.425   3.781
 3664DLPE   PO441724  35.989  16.469   3.952
 3664DLPE   GL141725  35.980  16.452   4.341
 3664DLPE   GL241726  35.699  16.582   4.352
 3664DLPE   C1A41727  36.022  16.642   4.737
 3664DLPE   D2A41728  36.129  16.821   5.151
 3664DLPE   D3A41729  36.328  16.612   5.500
 3664DLPE   C4A41730  36.795  16.468   5.617
 3664DLPE   C1B41731  35.314  16.487   4.637
 3664DLPE   D2B41732  35.219  16.521   5.111
 3664DLPE   D3B41733  35.390  16.227   5.395
 3664DLPE   C4B41734  35.744  16.167   5.697
 3665DLPE   NH341735  13.629  14.325   3.352
 3665DLPE   PO441736  13.791  14.439   3.579
 3665DLPE   GL141737  13.659  14.459   3.937
 3665DLPE   GL241738  13.523  14.710   3.898
 3665DLPE   C1A41739  13.383  14.337   4.251
 3665DLPE   D2A41740  13.265  14.693   4.608
 3665DLPE   D3A41741  13.032  14.752   5.042
 3665DLPE   C4A41742  12.642  14.587   5.282
 3665DLPE   C1B41743  13.146  14.791   4.097
 3665DLPE   D2B41744  12.692  14.721   4.252
 3665DLPE   D3B41745  12.319  14.559   4.442
 3665DLPE   C4B41746  12.030  14.885   4.372
 3666DLPE   NH341747  10.276  22.509   2.646
 3666DLPE   PO441748  10.576  22.682   2.702
 3666DLPE   GL141749  10.480  22.853   3.012
 3666DLPE   GL241750  10.300  23.050   2.920
 3666DLPE   C1A41751  10.558  22.873   3.444
 3666DLPE   D2A41752  10.475  22.663   3.949
 3666DLPE   D3A41753  10.305  22.540   4.386
 3666DLPE   C4A41754  10.252  22.107   4.458
 3666DLPE   C1B41755  10.165  23.150   3.393
 3666DLPE   D2B41756  10.209  23.081   3.842
 3666DLPE   D3B41757  10.090  23.311   4.173
 3666DLPE   C4B41758   9.745  23.343   4.479
 3667DLPE   NH341759  18.648  34.151   3.353
 3667DLPE   PO441760  18.842  33.885   3.498
 3667DLPE   GL141761  18.876  33.994   3.939
 3667DLPE   GL241762  18.672  33.708   3.966
 3667DLPE   C1A41763  19.214  34.022   4.150
 3667DLPE   D2A41764  19.569  34.311   4.481
 3667DLPE   D3A41765  19.358  34.124   4.842
 3667DLPE   C4A41766  18.928  34.038   5.023
 3667DLPE   C1B41767  18.741  33.603   4.428
 3667DLPE   D2B41768  18.953  33.252   4.698
 3667DLPE   D3B41769  19.070  33.524   5.032
 3667DLPE   C4B41770  19.160  33.733   4.640
 3668DLPE   NH341771   2.658  32.906   3.824
 3668DLPE   PO441772   2.904  33.023   4.017
 3668DLPE   GL141773   2.917  32.930   4.338
 3668DLPE   GL241774   2.646  33.112   4.450
 3668DLPE   C1A41775   2.977  33.039   4.742
 3668DLPE   D2A41776   3.022  32.899   5.303
 3668DLPE   D3A41777   2.635  32.648   5.275
 3668DLPE   C4A41778   2.556  32.893   4.855
 3668DLPE   C1B41779   2.655  33.422   4.700
 3668DLPE   D2B41780   2.348  33.708   4.901
 3668DLPE   D3B41781   1.978  33.970   4.939
 3668DLPE   C4B41782   1.722  34.044   4.628
 3669DLPE   NH341783  14.946  33.077   3.295
 3669DLPE   PO441784  14.848  33.378   3.467
 3669DLPE   GL141785  15.056  33.634   3.721
 3669DLPE   GL241786  15.301  33.465   3.685
 3669DLPE   C1A41787  15.060  33.660   4.156
 3669DLPE   D2A41788  15.106  33.647   4.611
 3669DLPE   D3A41789  14.857  33.851   4.926
 3669DLPE   C4A41790  15.044  34.205   5.157
 3669DLPE   C1B41791  15.292  33.169   3.936
 3669DLPE   D2B41792  15.269  33.209   4.427
 3669DLPE   D3B41793  15.514  32.827   4.290
 3669DLPE   C4B41794  15.899  32.661   4.020
 3670DLPE   NH341795   9.395   0.246   2.828
 3670DLPE   PO441796   9.754   0.142   2.802
 3670DLPE   GL141797   9.902   0.405   2.897
 3670DLPE   GL241798  10.167   0.335   3.003
 3670DLPE   C1A41799   9.913   0.757   3.147
 3670DLPE   D2A41800   9.915   1.246   3.298
 3670DLPE   D3A41801   9.954   1.496   3.627
 3670DLPE   C4A41802  10.210   1.594   4.016
 3670DLPE   C1B41803  10.115   0.325   3.445
 3670DLPE   D2B41804   9.829  -0.064   3.647
 3670DLPE   D3B41805  10.038  -0.486   3.787
 3670DLPE   C4B41806  10.406  -0.851   3.728
 3671DLPE   NH341807  12.033  28.813   3.123
 3671DLPE   PO441808  12.076  28.586   2.875
 3671DLPE   GL141809  11.739  28.438   3.115
 3671DLPE   GL241810  11.759  28.227   3.002
 3671DLPE   C1A41811  11.652  28.333   3.575
 3671DLPE   D2A41812  11.634  28.535   4.068
 3671DLPE   D3A41813  11.609  28.764   4.419
 3671DLPE   C4A41814  11.269  29.094   4.384
 3671DLPE   C1B41815  11.984  27.968   3.287
 3671DLPE   D2B41816  12.153  27.573   3.494
 3671DLPE   D3B41817  12.071  27.452   3.929
 3671DLPE   C4B41818  11.774  27.601   4.242
 3672DLPE   NH341819  25.198   2.660   3.366
 3672DLPE   PO441820  25.467   2.624   3.603
 3672DLPE   GL141821  25.475   2.794   3.917
 3672DLPE   GL241822  25.517   2.793   4.115
 3672DLPE   C1A41823  25.273   3.250   3.981
 3672DLPE   D2A41824  25.095   3.436   4.469
 3672DLPE   D3A41825  24.930   3.103   4.776
 3672DLPE   C4A41826  24.753   2.947   5.231
 3672DLPE   C1B41827  25.387   3.038   4.468
 3672DLPE   D2B41828  25.447   3.031   4.964
 3672DLPE   D3B41829  25.715   3.133   5.324
 3672DLPE   C4B41830  26.007   3.212   4.942
 3673DLPE   NH341831  14.046   1.368   3.253
 3673DLPE   PO441832  14.016   1.720   3.114
 3673DLPE   GL141833  14.014   1.791   3.500
 3673DLPE   GL241834  14.286   1.627   3.528
 3673DLPE   C1A41835  13.862   1.615   3.897
 3673DLPE   D2A41836  13.616   1.766   4.324
 3673DLPE   D3A41837  13.489   1.726   4.739
 3673DLPE   C4A41838  13.524   1.280   4.899
 3673DLPE   C1B41839  14.500   1.572   3.889
 3673DLPE   D2B41840  14.284   1.579   4.359
 3673DLPE   D3B41841  13.931   1.482   4.636
 3673DLPE   C4B41842  14.346   1.281   4.743
 3674DLPE   NH341843  17.998  33.572   3.160
 3674DLPE   PO441844  17.642  33.552   3.079
 3674DLPE   GL141845  17.577  33.418   3.471
 3674DLPE   GL241846  17.779  33.531   3.594
 3674DLPE   C1A41847  17.429  33.087   3.716
 3674DLPE   D2A41848  17.169  33.120   4.163
 3674DLPE   D3A41849  17.145  33.028   4.574
 3674DLPE   C4A41850  17.555  33.156   4.789
 3674DLPE   C1B41851  17.701  33.441   3.970
 3674DLPE   D2B41852  17.693  33.035   4.298
 3674DLPE   D3B41853  17.733  32.707   4.570
 3674DLPE   C4B41854  17.994  32.324   4.598
 3675DLPE   NH341855  24.651   6.121   3.664
 3675DLPE   PO441856  24.833   5.903   3.500
 3675DLPE   GL141857  24.854   5.826   3.996
 3675DLPE   GL241858  25.111   5.786   3.877
 3675DLPE   C1A41859  25.028   5.755   4.376
 3675DLPE   D2A41860  25.133   5.265   4.546
 3675DLPE   D3A41861  24.718   5.260   4.703
 3675DLPE   C4A41862  24.392   4.899   4.802
 3675DLPE   C1B41863  25.482   5.563   4.060
 3675DLPE   D2B41864  25.656   5.261   4.529
 3675DLPE   D3B41865  25.790   5.143   4.984
 3675DLPE   C4B41866  26.004   5.547   5.182
 3676DLPE   NH341867  14.765   1.954   3.380
 3676DLPE   PO441868  14.996   2.147   3.534
 3676DLPE   GL141869  15.277   1.898   3.807
 3676DLPE   GL241870  15.010   1.741   3.929
 3676DLPE   C1A41871  15.407   1.486   3.963
 3676DLPE   D2A41872  15.912   1.359   3.978
 3676DLPE   D3A41873  16.292   1.232   4.202
 3676DLPE   C4A41874  16.040   0.836   4.274
 3676DLPE   C1B41875  15.113   1.671   4.322
 3676DLPE   D2B41876  15.194   1.554   4.753
 3676DLPE   D3B41877  15.182   1.654   5.142
 3676DLPE   C4B41878  15.532   1.364   5.185
 3677DLPE   NH341879  28.414  30.547   2.461
 3677DLPE   PO441880  28.562  30.390   2.708
 3677DLPE   GL141881  28.261  30.298   3.021
 3677DLPE   GL241882  28.219  30.566   3.114
 3677DLPE   C1A41883  28.028  30.060   3.358
 3677DLPE   D2A41884  27.791  29.937   3.753
 3677DLPE   D3A41885  27.853  29.861   4.269
 3677DLPE   C4A41886  28.107  29.785   4.644
 3677DLPE   C1B41887  28.239  30.546   3.565
 3677DLPE   D2B41888  28.132  30.350   3.981
 3677DLPE   D3B41889  28.259  30.256   4.373
 3677DLPE   C4B41890  28.555  30.179   4.730
 3678DLPE   NH341891  35.138  17.466   3.610
 3678DLPE   PO441892  35.403  17.404   3.811
 3678DLPE   GL141893  35.530  17.519   4.209
 3678DLPE   GL241894  35.631  17.248   4.184
 3678DLPE   C1A41895  35.591  17.436   4.606
 3678DLPE   D2A41896  35.661  17.038   4.885
 3678DLPE   D3A41897  35.667  16.733   5.182
 3678DLPE   C4A41898  35.871  16.737   5.628
 3678DLPE   C1B41899  35.973  17.193   4.442
 3678DLPE   D2B41900  36.344  16.979   4.679
 3678DLPE   D3B41901  36.671  17.153   4.858
 3678DLPE   C4B41902  36.937  16.825   4.574
 3679DLPE   NH341903  30.542   5.229   3.183
 3679DLPE   PO441904  30.475   5.519   3.366
 3679DLPE   GL141905  30.281   5.581   3.687
 3679DLPE   GL241906  30.039   5.532   3.714
 3679DLPE   C1A41907  30.368   5.563   4.071
 3679DLPE   D2A41908  30.498   5.549   4.518
 3679DLPE   D3A41909  30.887   5.410   4.611
 3679DLPE   C4A41910  31.029   4.959   4.809
 3679DLPE   C1B41911  29.855   5.481   4.142
 3679DLPE   D2B41912  30.090   5.184   4.457
 3679DLPE   D3B41913  30.231   5.274   4.924
 3679DLPE   C4B41914  30.538   5.122   5.269
 3680DLPE   NH341915  35.392  32.009   3.771
 3680DLPE   PO441916  35.303  31.686   3.928
 3680DLPE   GL141917  34.924  31.790   4.033
 3680DLPE   GL241918  34.755  31.943   4.010
 3680DLPE   C1A41919  34.886  31.662   4.468
 3680DLPE   D2A41920  34.684  32.094   4.684
 3680DLPE   D3A41921  34.599  32.081   5.126
 3680DLPE   C4A41922  34.326  31.758   5.193
 3680DLPE   C1B41923  34.421  31.906   4.287
 3680DLPE   D2B41924  33.932  32.119   4.412
 3680DLPE   D3B41925  33.811  32.483   4.555
 3680DLPE   C4B41926  34.099  32.810   4.564
 3681DLPE   NH341927   1.251   6.470   2.984
 3681DLPE   PO441928   1.070   6.313   3.210
 3681DLPE   GL141929   0.850   6.456   3.508
 3681DLPE   GL241930   0.572   6.299   3.577
 3681DLPE   C1A41931   0.942   6.793   3.768
 3681DLPE   D2A41932   1.359   6.772   3.934
 3681DLPE   D3A41933   1.788   6.763   3.990
 3681DLPE   C4A41934   1.883   6.374   4.258
 3681DLPE   C1B41935   0.270   6.580   3.738
 3681DLPE   D2B41936   0.130   6.843   4.149
 3681DLPE   D3B41937  -0.275   6.991   4.211
 3681DLPE   C4B41938  -0.431   7.437   4.261
 3682DLPE   NH341939  26.260  32.162   3.270
 3682DLPE   PO441940  25.901  32.245   3.359
 3682DLPE   GL141941  25.787  32.318   3.777
 3682DLPE   GL241942  25.727  32.606   3.699
 3682DLPE   C1A41943  25.669  32.201   4.145
 3682DLPE   D2A41944  25.502  31.940   4.487
 3682DLPE   D3A41945  25.660  31.603   4.511
 3682DLPE   C4A41946  26.050  31.663   4.775
 3682DLPE   C1B41947  25.898  32.946   3.718
 3682DLPE   D2B41948  25.898  33.389   3.891
 3682DLPE   D3B41949  25.978  33.652   4.241
 3682DLPE   C4B41950  25.773  33.979   4.528
 3683DLPE   NH341951  32.998  10.263   3.154
 3683DLPE   PO441952  33.001  10.544   3.335
 3683DLPE   GL141953  33.230  10.321   3.605
 3683DLPE   GL241954  33.489  10.465   3.426
 3683DLPE   C1A41955  33.354  10.223   3.961
 3683DLPE   D2A41956  33.292   9.946   4.411
 3683DLPE   D3A41957  33.474   9.707   4.746
 3683DLPE   C4A41958  33.890   9.932   4.783
 3683DLPE   C1B41959  33.833  10.758   3.497
 3683DLPE   D2B41960  33.728  11.021   3.904
 3683DLPE   D3B41961  33.634  11.515   3.901
 3683DLPE   C4B41962  33.566  11.964   4.052
 3684DLPE   NH341963  10.326  34.532   3.115
 3684DLPE   PO441964   9.979  34.388   3.165
 3684DLPE   GL141965  10.042  34.317   3.494
 3684DLPE   GL241966   9.828  34.154   3.657
 3684DLPE   C1A41967  10.175  34.640   3.697
 3684DLPE   D2A41968  10.598  34.649   4.026
 3684DLPE   D3A41969  10.394  34.757   4.395
 3684DLPE   C4A41970  10.363  34.805   4.910
 3684DLPE   C1B41971  10.094  34.248   3.971
 3684DLPE   D2B41972  10.451  34.159   4.292
 3684DLPE   D3B41973  10.432  34.312   4.723
 3684DLPE   C4B41974  10.405  34.218   5.216
 3685DLPE   NH341975   3.863   6.070   3.168
 3685DLPE   PO441976   3.603   6.026   3.447
 3685DLPE   GL141977   3.706   6.135   3.771
 3685DLPE   GL241978   3.547   6.046   3.936
 3685DLPE   C1A41979   3.879   6.195   4.191
 3685DLPE   D2A41980   3.966   6.528   4.526
 3685DLPE   D3A41981   3.563   6.713   4.467
 3685DLPE   C4A41982   3.750   7.100   4.231
 3685DLPE   C1B41983   3.451   5.818   4.331
 3685DLPE   D2B41984   3.202   5.844   4.818
 3685DLPE   D3B41985   3.122   5.516   5.087
 3685DLPE   C4B41986   2.931   5.277   5.444
 3686DLPE   NH341987   8.388  32.999   3.325
 3686DLPE   PO441988   8.322  33.358   3.305
 3686DLPE   GL141989   8.492  33.415   3.735
 3686DLPE   GL241990   8.220  33.205   3.703
 3686DLPE   C1A41991   8.456  33.426   4.239
 3686DLPE   D2A41992   8.364  33.704   4.643
 3686DLPE   D3A41993   8.546  33.416   4.943
 3686DLPE   C4A41994   8.130  33.293   5.234
 3686DLPE   C1B41995   7.982  33.148   4.085
 3686DLPE   D2B41996   8.103  33.241   4.559
 3686DLPE   D3B41997   7.749  33.419   4.823
 3686DLPE   C4B41998   7.592  33.399   4.377
 3687DLPE   NH341999   0.430  16.161   3.794
 3687DLPE   PO442000   0.388  16.481   3.661
 3687DLPE   GL142001   0.561  16.722   3.989
 3687DLPE   GL242002   0.523  16.531   4.170
 3687DLPE   C1A42003   0.552  17.132   4.166
 3687DLPE   D2A42004   0.406  17.477   4.380
 3687DLPE   D3A42005   0.518  17.621   4.791
 3687DLPE   C4A42006   0.488  17.547   5.217
 3687DLPE   C1B42007   0.400  16.399   4.620
 3687DLPE   D2B42008   0.395  16.342   5.083
 3687DLPE   D3B42009  -0.052  16.324   5.211
 3687DLPE   C4B42010  -0.304  16.311   4.841
 3688DLPE   NH342011  33.026  18.101   4.107
 3688DLPE   PO442012  33.069  17.776   3.971
 3688DLPE   GL142013  32.996  17.527   4.344
 3688DLPE   GL242014  33.145  17.387   4.209
 3688DLPE   C1A42015  33.067  17.678   4.790
 3688DLPE   D2A42016  33.001  17.478   5.278
 3688DLPE   D3A42017  32.750  17.206   5.540
 3688DLPE   C4A42018  32.364  17.296   5.812
 3688DLPE   C1B42019  32.881  17.003   4.339
 3688DLPE   D2B42020  32.529  16.852   4.670
 3688DLPE   D3B42021  32.538  17.002   5.078
 3688DLPE   C4B42022  32.304  17.412   5.309
 3689DLPE   NH342023  31.319   7.021   3.011
 3689DLPE   PO442024  31.386   6.772   3.204
 3689DLPE   GL142025  31.648   6.896   3.454
 3689DLPE   GL242026  31.468   7.046   3.610
 3689DLPE   C1A42027  32.049   6.702   3.505
 3689DLPE   D2A42028  32.340   6.374   3.752
 3689DLPE   D3A42029  32.398   5.867   3.675
 3689DLPE   C4A42030  32.485   5.489   3.891
 3689DLPE   C1B42031  31.260   6.926   4.011
 3689DLPE   D2B42032  31.099   6.776   4.431
 3689DLPE   D3B42033  31.474   6.681   4.477
 3689DLPE   C4B42034  31.842   6.834   4.630
 3690DLPE   NH342035  23.062   1.111   2.858
 3690DLPE   PO442036  23.316   1.307   3.036
 3690DLPE   GL142037  23.238   1.192   3.400
 3690DLPE   GL242038  23.322   1.423   3.582
 3690DLPE   C1A42039  23.194   0.787   3.564
 3690DLPE   D2A42040  22.748   0.735   3.715
 3690DLPE   D3A42041  22.647   0.507   4.026
 3690DLPE   C4A42042  22.826   0.096   4.271
 3690DLPE   C1B42043  23.472   1.182   3.868
 3690DLPE   D2B42044  23.404   1.270   4.453
 3690DLPE   D3B42045  23.399   1.298   4.937
 3690DLPE   C4B42046  23.267   1.032   5.348
 3691DLPE   NH342047  30.775  20.560   3.465
 3691DLPE   PO442048  30.492  20.649   3.293
 3691DLPE   GL142049  30.366  20.690   3.690
 3691DLPE   GL242050  30.313  20.528   3.902
 3691DLPE   C1A42051  30.559  20.999   3.965
 3691DLPE   D2A42052  30.534  20.932   4.441
 3691DLPE   D3A42053  30.922  20.792   4.396
 3691DLPE   C4A42054  31.149  20.662   4.754
 3691DLPE   C1B42055  30.096  20.813   4.174
 3691DLPE   D2B42056  29.984  21.000   4.571
 3691DLPE   D3B42057  30.333  21.078   4.898
 3691DLPE   C4B42058  30.401  20.924   5.342
 3692DLPE   NH342059  18.291  22.003   3.376
 3692DLPE   PO442060  18.078  22.214   3.242
 3692DLPE   GL142061  17.869  22.246   3.607
 3692DLPE   GL242062  17.631  22.339   3.471
 3692DLPE   C1A42063  17.984  22.530   3.940
 3692DLPE   D2A42064  17.686  22.654   4.313
 3692DLPE   D3A42065  18.004  22.736   4.577
 3692DLPE   C4A42066  17.657  22.709   4.939
 3692DLPE   C1B42067  17.413  22.503   3.766
 3692DLPE   D2B42068  17.179  22.573   4.195
 3692DLPE   D3B42069  17.189  22.617   4.684
 3692DLPE   C4B42070  17.248  22.458   5.088
 3693DLPE   NH342071   7.857   4.183   3.459
 3693DLPE   PO442072   7.685   4.001   3.175
 3693DLPE   GL142073   7.891   3.750   3.437
 3693DLPE   GL242074   7.705   3.740   3.637
 3693DLPE   C1A42075   8.314   3.808   3.697
 3693DLPE   D2A42076   8.664   3.763   4.082
 3693DLPE   D3A42077   8.639   3.839   4.511
 3693DLPE   C4A42078   8.837   3.875   4.942
 3693DLPE   C1B42079   7.835   3.725   3.983
 3693DLPE   D2B42080   7.954   3.622   4.493
 3693DLPE   D3B42081   7.811   4.050   4.536
 3693DLPE   C4B42082   7.762   4.499   4.710
 3694DLPE   NH342083   7.097  29.959   2.865
 3694DLPE   PO442084   7.045  29.760   3.099
 3694DLPE   GL142085   6.887  29.877   3.472
 3694DLPE   GL242086   6.889  30.176   3.450
 3694DLPE   C1A42087   7.095  29.685   3.822
 3694DLPE   D2A42088   7.556  29.567   4.004
 3694DLPE   D3A42089   7.431  29.874   4.319
 3694DLPE   C4A42090   7.611  30.129   4.626
 3694DLPE   C1B42091   6.950  30.368   3.867
 3694DLPE   D2B42092   6.980  30.651   4.295
 3694DLPE   D3B42093   6.622  30.457   4.343
 3694DLPE   C4B42094   6.334  30.423   4.724
 3695DLPE   NH342095  23.352  16.723   4.008
 3695DLPE   PO442096  23.306  16.507   3.757
 3695DLPE   GL142097  23.399  16.221   4.067
 3695DLPE   GL242098  23.107  16.188   4.042
 3695DLPE   C1A42099  23.723  15.982   4.211
 3695DLPE   D2A42100  23.663  15.672   4.573
 3695DLPE   D3A42101  23.886  15.254   4.631
 3695DLPE   C4A42102  23.664  15.001   4.921
 3695DLPE   C1B42103  22.920  16.243   4.372
 3695DLPE   D2B42104  23.030  16.354   4.865
 3695DLPE   D3B42105  23.371  16.356   5.216
 3695DLPE   C4B42106  23.342  16.538   5.696
 3696DLPE   NH342107  33.361  33.694   3.402
 3696DLPE   PO442108  33.049  33.582   3.317
 3696DLPE   GL142109  32.988  33.573   3.777
 3696DLPE   GL242110  33.154  33.814   3.810
 3696DLPE   C1A42111  32.912  33.610   4.143
 3696DLPE   D2A42112  32.607  33.422   4.482
 3696DLPE   D3A42113  32.644  33.522   4.941
 3696DLPE   C4A42114  32.432  33.811   5.129
 3696DLPE   C1B42115  33.068  34.079   4.187
 3696DLPE   D2B42116  33.021  34.164   4.714
 3696DLPE   D3B42117  32.946  34.506   4.938
 3696DLPE   C4B42118  32.463  34.435   5.025
 3697DLPE   NH342119  21.449   8.004   3.542
 3697DLPE   PO442120  21.413   7.669   3.655
 3697DLPE   GL142121  21.381   7.775   4.083
 3697DLPE   GL242122  21.227   7.951   3.952
 3697DLPE   C1A42123  21.551   7.672   4.536
 3697DLPE   D2A42124  21.452   7.234   4.710
 3697DLPE   D3A42125  21.049   7.129   4.899
 3697DLPE   C4A42126  20.647   7.213   4.636
 3697DLPE   C1B42127  20.836   7.967   4.107
 3697DLPE   D2B42128  20.931   8.131   4.573
 3697DLPE   D3B42129  21.245   8.079   4.899
 3697DLPE   C4B42130  21.457   7.963   5.276
 3698DLPE   NH342131  16.397  13.105   3.316
 3698DLPE   PO442132  16.589  13.380   3.344
 3698DLPE   GL142133  16.814  13.335   3.734
 3698DLPE   GL242134  17.022  13.375   3.651
 3698DLPE   C1A42135  16.714  13.251   4.100
 3698DLPE   D2A42136  16.464  13.126   4.462
 3698DLPE   D3A42137  16.592  13.396   4.797
 3698DLPE   C4A42138  16.833  13.454   5.203
 3698DLPE   C1B42139  17.359  13.379   3.914
 3698DLPE   D2B42140  17.620  13.364   4.379
 3698DLPE   D3B42141  17.591  13.473   4.799
 3698DLPE   C4B42142  17.964  13.155   4.828
 3699DLPE   NH342143  29.606  18.151   3.127
 3699DLPE   PO442144  29.360  18.399   3.140
 3699DLPE   GL142145  29.297  18.506   3.439
 3699DLPE   GL242146  29.042  18.379   3.515
 3699DLPE   C1A42147  29.468  18.892   3.614
 3699DLPE   D2A42148  29.528  19.337   3.845
 3699DLPE   D3A42149  29.824  19.311   4.138
 3699DLPE   C4A42150  29.718  19.142   4.585
 3699DLPE   C1B42151  28.949  18.839   3.615
 3699DLPE   D2B42152  28.439  19.011   3.727
 3699DLPE   D3B42153  28.631  19.375   3.755
 3699DLPE   C4B42154  28.663  19.792   4.030
 3700DLPE   NH342155  29.983  12.630   3.618
 3700DLPE   PO442156  29.666  12.796   3.644
 3700DLPE   GL142157  29.691  12.772   4.023
 3700DLPE   GL242158  29.934  12.582   4.056
 3700DLPE   C1A42159  29.469  13.213   4.217
 3700DLPE   D2A42160  29.338  13.281   4.708
 3700DLPE   D3A42161  29.273  12.865   4.923
 3700DLPE   C4A42162  29.395  12.942   5.407
 3700DLPE   C1B42163  30.032  12.425   4.466
 3700DLPE   D2B42164  30.082  12.247   4.940
 3700DLPE   D3B42165  30.232  11.938   5.268
 3700DLPE   C4B42166  30.588  12.008   5.581
 3701DLPE   NH342167  12.588  12.649   3.252
 3701DLPE   PO442168  12.532  12.328   3.348
 3701DLPE   GL142169  12.242  12.108   3.607
 3701DLPE   GL242170  12.050  12.366   3.567
 3701DLPE   C1A42171  12.170  11.882   4.010
 3701DLPE   D2A42172  12.092  11.794   4.479
 3701DLPE   D3A42173  12.427  12.134   4.353
 3701DLPE   C4A42174  12.523  12.371   3.991
 3701DLPE   C1B42175  11.945  12.495   3.948
 3701DLPE   D2B42176  12.159  12.656   4.382
 3701DLPE   D3B42177  12.125  12.625   4.880
 3701DLPE   C4B42178  12.001  12.758   5.295
 3702DLPE   NH342179  29.113  30.898   3.115
 3702DLPE   PO442180  28.917  31.174   3.162
 3702DLPE   GL142181  28.911  31.272   3.623
 3702DLPE   GL242182  28.718  31.468   3.555
 3702DLPE   C1A42183  28.668  30.930   3.704
 3702DLPE   D2A42184  28.589  30.748   4.102
 3702DLPE   D3A42185  28.454  30.977   4.437
 3702DLPE   C4A42186  28.619  31.211   4.123
 3702DLPE   C1B42187  28.801  31.706   3.856
 3702DLPE   D2B42188  29.014  32.087   4.042
 3702DLPE   D3B42189  28.952  32.209   4.433
 3702DLPE   C4B42190  29.051  32.002   4.850
 3703DLPE   NH342191  23.145  14.926   3.572
 3703DLPE   PO442192  23.512  14.957   3.601
 3703DLPE   GL142193  23.428  14.982   4.004
 3703DLPE   GL242194  23.170  14.921   4.022
 3703DLPE   C1A42195  23.400  15.093   4.416
 3703DLPE   D2A42196  23.311  15.388   4.824
 3703DLPE   D3A42197  23.453  15.740   5.060
 3703DLPE   C4A42198  23.264  15.617   5.517
 3703DLPE   C1B42199  23.050  14.716   4.348
 3703DLPE   D2B42200  23.098  14.905   4.798
 3703DLPE   D3B42201  22.749  15.091   5.057
 3703DLPE   C4B42202  22.779  15.530   4.898
 3704DLPE   NH342203  29.025   5.229   3.346
 3704DLPE   PO442204  28.694   5.166   3.403
 3704DLPE   GL142205  28.635   5.264   3.832
 3704DLPE   GL242206  28.947   5.218   3.812
 3704DLPE   C1A42207  28.434   5.125   4.167
 3704DLPE   D2A42208  28.321   5.537   4.390
 3704DLPE   D3A42209  28.232   5.648   4.820
 3704DLPE   C4A42210  27.838   5.590   5.073
 3704DLPE   C1B42211  28.914   5.112   4.246
 3704DLPE   D2B42212  28.580   5.146   4.632
 3704DLPE   D3B42213  28.577   5.360   5.059
 3704DLPE   C4B42214  28.261   5.509   5.355
 3705DLPE   NH342215  18.570  10.171   3.894
 3705DLPE   PO442216  18.220  10.080   3.974
 3705DLPE   GL142217  18.336  10.067   4.346
 3705DLPE   GL242218  18.633  10.184   4.360
 3705DLPE   C1A42219  18.389   9.779   4.627
 3705DLPE   D2A42220  18.575   9.360   4.673
 3705DLPE   D3A42221  18.613   9.323   5.118
 3705DLPE   C4A42222  19.058   9.246   5.035
 3705DLPE   C1B42223  18.805  10.202   4.779
 3705DLPE   D2B42224  18.707  10.450   5.185
 3705DLPE   D3B42225  18.903  10.443   5.525
 3705DLPE   C4B42226  19.066  10.829   5.730
 3706DLPE   NH342227  21.146   1.385   3.289
 3706DLPE   PO442228  20.844   1.566   3.224
 3706DLPE   GL142229  20.878   1.499   3.652
 3706DLPE   GL242230  21.176   1.478   3.709
 3706DLPE   C1A42231  20.693   1.562   3.993
 3706DLPE   D2A42232  20.446   1.475   4.430
 3706DLPE   D3A42233  20.693   1.133   4.637
 3706DLPE   C4A42234  20.811   1.150   4.191
 3706DLPE   C1B42235  21.313   1.302   4.106
 3706DLPE   D2B42236  21.382   1.331   4.614
 3706DLPE   D3B42237  21.586   1.672   4.623
 3706DLPE   C4B42238  21.457   2.117   4.385
 3707DLPE   NH342239   4.703   6.923   3.685
 3707DLPE   PO442240   4.965   7.009   3.788
 3707DLPE   GL142241   4.994   6.725   4.107
 3707DLPE   GL242242   4.726   6.855   4.139
 3707DLPE   C1A42243   5.315   6.766   4.391
 3707DLPE   D2A42244   5.467   6.923   4.843
 3707DLPE   D3A42245   5.613   6.914   5.216
 3707DLPE   C4A42246   5.438   6.499   5.348
 3707DLPE   C1B42247   4.431   6.630   4.293
 3707DLPE   D2B42248   4.349   6.571   4.809
 3707DLPE   D3B42249   4.105   6.232   4.909
 3707DLPE   C4B42250   3.706   6.036   4.779
 3708DLPE   NH342251   8.485   8.891   3.125
 3708DLPE   PO442252   8.348   9.228   3.172
 3708DLPE   GL142253   8.457   9.297   3.539
 3708DLPE   GL242254   8.418   9.021   3.613
 3708DLPE   C1A42255   8.644   9.398   3.922
 3708DLPE   D2A42256   8.945   9.645   4.271
 3708DLPE   D3A42257   8.893   9.526   4.747
 3708DLPE   C4A42258   8.632   9.179   4.908
 3708DLPE   C1B42259   8.406   8.837   4.020
 3708DLPE   D2B42260   8.431   8.772   4.564
 3708DLPE   D3B42261   8.210   8.885   4.987
 3708DLPE   C4B42262   8.050   9.182   5.255
 3709DLPE   NH342263   3.555   4.443   3.465
 3709DLPE   PO442264   3.639   4.765   3.473
 3709DLPE   GL142265   3.290   4.699   3.739
 3709DLPE   GL242266   3.456   4.519   3.879
 3709DLPE   C1A42267   3.016   4.675   4.028
 3709DLPE   D2A42268   3.121   5.025   4.352
 3709DLPE   D3A42269   3.210   5.143   4.770
 3709DLPE   C4A42270   3.088   4.912   5.128
 3709DLPE   C1B42271   3.539   4.505   4.241
 3709DLPE   D2B42272   3.410   4.688   4.631
 3709DLPE   D3B42273   3.724   4.659   4.931
 3709DLPE   C4B42274   3.570   5.024   5.166
 3710DLPE   NH342275  16.207  20.213   3.824
 3710DLPE   PO442276  15.891  20.132   3.761
 3710DLPE   GL142277  15.965  19.980   4.115
 3710DLPE   GL242278  15.804  20.171   4.261
 3710DLPE   C1A42279  15.808  19.779   4.491
 3710DLPE   D2A42280  15.552  19.514   4.877
 3710DLPE   D3A42281  15.238  19.542   5.221
 3710DLPE   C4A42282  15.228  19.347   5.621
 3710DLPE   C1B42283  15.561  20.212   4.677
 3710DLPE   D2B42284  15.272  20.035   4.970
 3710DLPE   D3B42285  15.473  20.018   5.329
 3710DLPE   C4B42286  15.246  19.835   5.709
 3711DLPE   NH342287  31.301  17.642   3.326
 3711DLPE   PO442288  30.990  17.814   3.377
 3711DLPE   GL142289  30.993  17.572   3.741
 3711DLPE   GL242290  31.279  17.675   3.805
 3711DLPE   C1A42291  30.968  17.452   4.111
 3711DLPE   D2A42292  30.734  17.284   4.534
 3711DLPE   D3A42293  30.578  17.585   4.795
 3711DLPE   C4A42294  30.536  17.883   5.192
 3711DLPE   C1B42295  31.438  17.577   4.191
 3711DLPE   D2B42296  31.670  17.502   4.668
 3711DLPE   D3B42297  31.755  17.419   5.093
 3711DLPE   C4B42298  31.863  17.318   5.529
 3712DLPE   NH342299  33.564  24.285   3.695
 3712DLPE   PO442300  33.607  23.944   3.606
 3712DLPE   GL142301  33.565  23.854   3.937
 3712DLPE   GL242302  33.329  23.712   3.989
 3712DLPE   C1A42303  33.605  24.139   4.269
 3712DLPE   D2A42304  33.261  24.278   4.696
 3712DLPE   D3A42305  32.935  24.308   4.380
 3712DLPE   C4A42306  32.728  23.899   4.202
 3712DLPE   C1B42307  33.118  23.796   4.429
 3712DLPE   D2B42308  32.945  23.936   4.838
 3712DLPE   D3B42309  33.003  24.123   5.285
 3712DLPE   C4B42310  33.360  24.041   5.594
 3713DLPE   NH342311  13.466  18.380   3.296
 3713DLPE   PO442312  13.812  18.477   3.360
 3713DLPE   GL142313  13.842  18.381   3.720
 3713DLPE   GL242314  13.555  18.465   3.752
 3713DLPE   C1A42315  14.063  18.453   4.063
 3713DLPE   D2A42316  14.412  18.456   4.421
 3713DLPE   D3A42317  14.368  18.369   4.896
 3713DLPE   C4A42318  14.257  18.099   5.319
 3713DLPE   C1B42319  13.614  18.449   4.184
 3713DLPE   D2B42320  13.729  18.523   4.662
 3713DLPE   D3B42321  14.046  18.734   4.751
 3713DLPE   C4B42322  14.197  18.926   4.292
 3714DLPE   NH342323  30.777  25.794   3.134
 3714DLPE   PO442324  30.567  25.997   3.261
 3714DLPE   GL142325  30.484  25.926   3.714
 3714DLPE   GL242326  30.338  26.144   3.736
 3714DLPE   C1A42327  30.727  25.808   4.081
 3714DLPE   D2A42328  30.936  25.973   4.498
 3714DLPE   D3A42329  30.909  25.808   4.879
 3714DLPE   C4A42330  30.590  25.990   5.237
 3714DLPE   C1B42331  30.256  26.084   4.138
 3714DLPE   D2B42332  30.294  25.665   4.317
 3714DLPE   D3B42333  30.588  25.566   4.537
 3714DLPE   C4B42334  30.793  25.136   4.658
 3715DLPE   NH342335  30.883  18.916   3.526
 3715DLPE   PO442336  31.155  18.803   3.424
 3715DLPE   GL142337  31.174  18.590   3.738
 3715DLPE   GL242338  31.108  18.687   4.020
 3715DLPE   C1A42339  31.558  18.493   3.963
 3715DLPE   D2A42340  32.009  18.760   4.079
 3715DLPE   D3A42341  32.001  19.144   4.351
 3715DLPE   C4A42342  32.086  19.244   4.746
 3715DLPE   C1B42343  31.303  18.638   4.398
 3715DLPE   D2B42344  31.370  18.461   4.879
 3715DLPE   D3B42345  31.331  18.606   5.309
 3715DLPE   C4B42346  31.143  18.879   4.965
 3716DLPE   NH342347  15.234   9.388   3.345
 3716DLPE   PO442348  14.965   9.489   3.565
 3716DLPE   GL142349  15.048   9.762   3.883
 3716DLPE   GL242350  15.252   9.514   3.934
 3716DLPE   C1A42351  15.031  10.035   4.211
 3716DLPE   D2A42352  14.792  10.310   4.558
 3716DLPE   D3A42353  14.841  10.364   4.987
 3716DLPE   C4A42354  14.664   9.917   4.966
 3716DLPE   C1B42355  14.994   9.489   4.238
 3716DLPE   D2B42356  14.875   9.510   4.635
 3716DLPE   D3B42357  15.049   9.429   5.029
 3716DLPE   C4B42358  15.100   9.787   5.330
 3717DLPE   NH342359   5.529  15.644   3.401
 3717DLPE   PO442360   5.475  15.882   3.624
 3717DLPE   GL142361   5.064  15.799   3.892
 3717DLPE   GL242362   5.211  15.956   4.076
 3717DLPE   C1A42363   4.683  15.776   4.157
 3717DLPE   D2A42364   4.276  15.532   4.170
 3717DLPE   D3A42365   4.141  15.251   4.514
 3717DLPE   C4A42366   4.259  15.006   4.850
 3717DLPE   C1B42367   5.461  16.374   4.083
 3717DLPE   D2B42368   5.528  16.814   4.107
 3717DLPE   D3B42369   5.379  17.035   4.527
 3717DLPE   C4B42370   4.913  17.088   4.498
 3718DLPE   NH342371   8.646   1.814   2.988
 3718DLPE   PO442372   8.487   1.554   3.213
 3718DLPE   GL142373   8.632   1.737   3.542
 3718DLPE   GL242374   8.440   1.949   3.585
 3718DLPE   C1A42375   8.662   1.495   3.883
 3718DLPE   D2A42376   8.495   1.314   4.292
 3718DLPE   D3A42377   8.542   0.924   4.527
 3718DLPE   C4A42378   8.762   0.995   4.909
 3718DLPE   C1B42379   8.586   1.997   3.986
 3718DLPE   D2B42380   8.848   1.675   4.306
 3718DLPE   D3B42381   8.897   1.415   4.642
 3718DLPE   C4B42382   9.247   1.159   4.844
 3719DLPE   NH342383   4.824  28.804   3.333
 3719DLPE   PO442384   4.790  29.047   3.568
 3719DLPE   GL142385   4.659  28.987   3.953
 3719DLPE   GL242386   4.420  29.017   3.975
 3719DLPE   C1A42387   5.050  29.082   4.171
 3719DLPE   D2A42388   5.298  29.463   4.420
 3719DLPE   D3A42389   5.417  29.367   4.852
 3719DLPE   C4A42390   5.280  29.506   5.300
 3719DLPE   C1B42391   4.157  28.951   4.382
 3719DLPE   D2B42392   3.823  29.131   4.726
 3719DLPE   D3B42393   3.794  29.190   5.251
 3719DLPE   C4B42394   4.222  29.001   5.157
 3720DLPE   NH342395  34.637  35.157   2.815
 3720DLPE   PO442396  34.389  35.273   2.997
 3720DLPE   GL142397  34.325  35.388   3.442
 3720DLPE   GL242398  34.657  35.309   3.351
 3720DLPE   C1A42399  34.128  35.790   3.535
 3720DLPE   D2A42400  33.984  36.097   3.852
 3720DLPE   D3A42401  34.135  35.799   4.107
 3720DLPE   C4A42402  34.215  35.709   4.562
 3720DLPE   C1B42403  34.742  35.525   3.657
 3720DLPE   D2B42404  34.817  35.921   3.976
 3720DLPE   D3B42405  34.656  35.960   4.419
 3720DLPE   C4B42406  34.156  36.208   4.389
 3721DLPE   NH342407   5.499  19.821   3.225
 3721DLPE   PO442408   5.776  19.973   3.451
 3721DLPE   GL142409   5.837  19.995   3.957
 3721DLPE   GL242410   5.534  20.044   3.876
 3721DLPE   C1A42411   5.970  20.002   4.385
 3721DLPE   D2A42412   5.821  19.799   4.785
 3721DLPE   D3A42413   5.975  19.409   4.994
 3721DLPE   C4A42414   5.511  19.396   5.073
 3721DLPE   C1B42415   5.453  19.806   4.220
 3721DLPE   D2B42416   5.327  19.700   4.723
 3721DLPE   D3B42417   5.213  19.291   4.738
 3721DLPE   C4B42418   4.730  19.246   4.755
 3722DLPE   NH342419   6.813   8.283   3.258
 3722DLPE   PO442420   6.965   8.524   3.084
 3722DLPE   GL142421   7.170   8.695   3.419
 3722DLPE   GL242422   7.131   8.428   3.591
 3722DLPE   C1A42423   7.552   8.871   3.519
 3722DLPE   D2A42424   7.523   9.378   3.631
 3722DLPE   D3A42425   7.627   9.841   3.656
 3722DLPE   C4A42426   7.865  10.314   3.718
 3722DLPE   C1B42427   6.850   8.535   3.845
 3722DLPE   D2B42428   6.667   8.089   4.017
 3722DLPE   D3B42429   7.012   8.251   4.288
 3722DLPE   C4B42430   7.154   8.677   4.471
 3723DLPE   NH342431  33.489   9.404   2.978
 3723DLPE   PO442432  33.617   9.741   2.965
 3723DLPE   GL142433  33.388   9.915   3.356
 3723DLPE   GL242434  33.593   9.763   3.371
 3723DLPE   C1A42435  33.168   9.856   3.745
 3723DLPE   D2A42436  32.873  10.140   4.064
 3723DLPE   D3A42437  32.901   9.712   4.201
 3723DLPE   C4A42438  32.535   9.592   4.513
 3723DLPE   C1B42439  33.716  10.163   3.597
 3723DLPE   D2B42440  33.814  10.528   3.938
 3723DLPE   D3B42441  34.006  10.746   4.249
 3723DLPE   C4B42442  33.645  10.896   4.477
 3724DLPE   NH342443  34.173  20.814   3.669
 3724DLPE   PO442444  34.110  20.469   3.592
 3724DLPE   GL142445  34.127  20.347   4.002
 3724DLPE   GL242446  33.840  20.170   4.022
 3724DLPE   C1A42447  34.118  20.563   4.385
 3724DLPE   D2A42448  34.100  20.880   4.830
 3724DLPE   D3A42449  33.989  21.289   4.928
 3724DLPE   C4A42450  33.630  21.507   4.788
 3724DLPE   C1B42451  33.645  20.300   4.353
 3724DLPE   D2B42452  33.219  20.062   4.583
 3724DLPE   D3B42453  32.918  20.138   4.331
 3724DLPE   C4B42454  32.716  19.788   4.468
 3725DLPE   NH342455  24.149   5.868   3.353
 3725DLPE   PO442456  24.371   5.623   3.250
 3725DLPE   GL142457  24.228   5.534   3.680
 3725DLPE   GL242458  24.387   5.773   3.794
 3725DLPE   C1A42459  24.373   5.169   3.978
 3725DLPE   D2A42460  24.299   5.299   4.479
 3725DLPE   D3A42461  24.330   5.443   4.917
 3725DLPE   C4A42462  24.102   5.785   4.982
 3725DLPE   C1B42463  24.518   5.631   4.167
 3725DLPE   D2B42464  24.613   5.816   4.647
 3725DLPE   D3B42465  25.019   5.666   4.869
 3725DLPE   C4B42466  25.168   5.969   5.170
 3726DLPE   NH342467  22.065  19.687   3.493
 3726DLPE   PO442468  22.182  19.885   3.728
 3726DLPE   GL142469  21.951  19.782   4.095
 3726DLPE   GL242470  22.176  19.960   4.185
 3726DLPE   C1A42471  21.599  20.009   4.239
 3726DLPE   D2A42472  21.245  20.198   4.441
 3726DLPE   D3A42473  20.893  20.093   4.125
 3726DLPE   C4A42474  21.254  19.771   3.990
 3726DLPE   C1B42475  22.453  20.074   4.457
 3726DLPE   D2B42476  22.938  20.077   4.649
 3726DLPE   D3B42477  23.171  20.140   5.059
 3726DLPE   C4B42478  23.332  20.529   5.175
 3727DLPE   NH342479  20.742  16.935   3.377
 3727DLPE   PO442480  21.024  17.013   3.575
 3727DLPE   GL142481  20.869  16.743   3.806
 3727DLPE   GL242482  20.993  16.456   3.763
 3727DLPE   C1A42483  20.780  16.607   4.196
 3727DLPE   D2A42484  20.658  16.239   4.528
 3727DLPE   D3A42485  20.485  16.081   4.884
 3727DLPE   C4A42486  20.830  16.213   5.179
 3727DLPE   C1B42487  21.062  16.123   4.033
 3727DLPE   D2B42488  21.477  16.315   4.215
 3727DLPE   D3B42489  21.737  16.152   4.578
 3727DLPE   C4B42490  21.456  16.178   4.957
 3728DLPE   NH342491  31.115   9.793   3.211
 3728DLPE   PO442492  30.823   9.940   3.212
 3728DLPE   GL142493  30.819   9.874   3.569
 3728DLPE   GL242494  31.100   9.839   3.653
 3728DLPE   C1A42495  30.574   9.620   3.823
 3728DLPE   D2A42496  30.173   9.463   4.086
 3728DLPE   D3A42497  30.192   9.392   4.558
 3728DLPE   C4A42498  30.362   9.558   4.951
 3728DLPE   C1B42499  31.033   9.486   3.991
 3728DLPE   D2B42500  30.642   9.555   4.354
 3728DLPE   D3B42501  30.763   9.892   4.667
 3728DLPE   C4B42502  30.831   9.998   5.116
 3729DLPE   NH342503  19.800  25.468   3.801
 3729DLPE   PO442504  20.173  25.424   3.714
 3729DLPE   GL142505  20.442  25.344   3.992
 3729DLPE   GL242506  20.606  25.534   3.956
 3729DLPE   C1A42507  20.285  25.269   4.414
 3729DLPE   D2A42508  20.033  25.332   4.837
 3729DLPE   D3A42509  19.757  25.345   5.171
 3729DLPE   C4A42510  19.658  25.153   5.597
 3729DLPE   C1B42511  20.797  25.692   4.331
 3729DLPE   D2B42512  20.992  25.987   4.665
 3729DLPE   D3B42513  20.742  25.824   5.038
 3729DLPE   C4B42514  20.376  25.493   5.149
 3730DLPE   NH342515  24.069  13.261   3.638
 3730DLPE   PO442516  23.777  13.118   3.610
 3730DLPE   GL142517  23.786  12.891   3.931
 3730DLPE   GL242518  23.919  13.027   4.045
 3730DLPE   C1A42519  23.562  12.827   4.275
 3730DLPE   D2A42520  23.476  13.306   4.553
 3730DLPE   D3A42521  23.636  13.154   4.938
 3730DLPE   C4A42522  24.020  12.924   5.030
 3730DLPE   C1B42523  24.076  12.913   4.480
 3730DLPE   D2B42524  24.331  12.560   4.777
 3730DLPE   D3B42525  24.187  12.395   5.133
 3730DLPE   C4B42526  24.421  12.012   5.067
 3731DLPE   NH342527  31.496  34.127   3.209
 3731DLPE   PO442528  31.158  34.104   3.244
 3731DLPE   GL142529  30.962  34.114   3.612
 3731DLPE   GL242530  30.705  34.050   3.629
 3731DLPE   C1A42531  30.971  34.368   3.957
 3731DLPE   D2A42532  31.048  34.409   4.451
 3731DLPE   D3A42533  31.099  34.226   4.802
 3731DLPE   C4A42534  31.234  34.523   5.146
 3731DLPE   C1B42535  30.696  33.943   4.061
 3731DLPE   D2B42536  30.638  33.879   4.560
 3731DLPE   D3B42537  30.789  33.777   4.962
 3731DLPE   C4B42538  30.845  34.101   5.274
 3732DLPE   NH342539   7.951   0.994   3.227
 3732DLPE   PO442540   7.991   1.354   3.290
 3732DLPE   GL142541   8.308   1.383   3.646
 3732DLPE   GL242542   8.500   1.193   3.594
 3732DLPE   C1A42543   8.218   1.696   3.907
 3732DLPE   D2A42544   8.331   1.766   4.322
 3732DLPE   D3A42545   8.492   1.670   4.742
 3732DLPE   C4A42546   8.286   1.261   4.754
 3732DLPE   C1B42547   8.552   0.909   3.895
 3732DLPE   D2B42548   8.402   0.537   4.242
 3732DLPE   D3B42549   8.751   0.345   4.463
 3732DLPE   C4B42550   9.000   0.737   4.548
 3733DLPE   NH342551  24.156  24.095   2.998
 3733DLPE   PO442552  24.223  24.355   3.217
 3733DLPE   GL142553  24.031  24.395   3.594
 3733DLPE   GL242554  24.258  24.474   3.788
 3733DLPE   C1A42555  24.111  24.017   3.770
 3733DLPE   D2A42556  24.059  23.708   4.133
 3733DLPE   D3A42557  23.787  23.430   4.436
 3733DLPE   C4A42558  23.731  22.992   4.721
 3733DLPE   C1B42559  24.216  24.264   4.214
 3733DLPE   D2B42560  24.183  24.319   4.720
 3733DLPE   D3B42561  23.872  24.163   5.123
 3733DLPE   C4B42562  23.605  24.542   5.280
 3734DLPE   NH342563  33.763  32.795   3.504
 3734DLPE   PO442564  33.783  33.048   3.743
 3734DLPE   GL142565  33.808  32.923   4.231
 3734DLPE   GL242566  33.827  33.243   4.186
 3734DLPE   C1A42567  33.432  32.755   4.429
 3734DLPE   D2A42568  33.153  32.497   4.742
 3734DLPE   D3A42569  33.531  32.551   5.029
 3734DLPE   C4A42570  33.434  32.816   5.448
 3734DLPE   C1B42571  33.964  33.589   4.323
 3734DLPE   D2B42572  34.223  33.906   4.643
 3734DLPE   D3B42573  34.448  33.758   5.007
 3734DLPE   C4B42574  34.875  33.743   5.149
 3735DLPE   NH342575  14.712  26.938   2.960
 3735DLPE   PO442576  14.998  27.049   3.105
 3735DLPE   GL142577  15.237  27.046   3.479
 3735DLPE   GL242578  15.414  26.736   3.426
 3735DLPE   C1A42579  15.162  27.171   3.935
 3735DLPE   D2A42580  14.796  27.259   4.199
 3735DLPE   D3A42581  14.635  27.008   3.908
 3735DLPE   C4A42582  14.876  26.747   3.707
 3735DLPE   C1B42583  15.373  26.710   3.819
 3735DLPE   D2B42584  15.428  26.541   4.237
 3735DLPE   D3B42585  15.289  26.560   4.688
 3735DLPE   C4B42586  15.376  26.608   5.180
 3736DLPE   NH342587  20.624   2.024   3.054
 3736DLPE   PO442588  20.934   2.077   3.197
 3736DLPE   GL142589  21.015   1.967   3.557
 3736DLPE   GL242590  20.790   1.986   3.814
 3736DLPE   C1A42591  21.426   1.874   3.729
 3736DLPE   D2A42592  21.686   1.632   4.104
 3736DLPE   D3A42593  21.999   1.341   3.987
 3736DLPE   C4A42594  22.190   0.889   3.872
 3736DLPE   C1B42595  21.119   1.742   4.124
 3736DLPE   D2B42596  20.935   1.600   4.527
 3736DLPE   D3B42597  20.948   1.828   4.971
 3736DLPE   C4B42598  21.060   2.199   5.246
 3737DLPE   NH342599   6.301  27.945   2.923
 3737DLPE   PO442600   6.572  28.105   3.111
 3737DLPE   GL142601   6.746  28.046   3.554
 3737DLPE   GL242602   6.653  27.776   3.471
 3737DLPE   C1A42603   6.681  28.017   3.945
 3737DLPE   D2A42604   6.543  27.694   4.286
 3737DLPE   D3A42605   6.372  27.979   4.620
 3737DLPE   C4A42606   6.346  27.924   5.066
 3737DLPE   C1B42607   6.518  27.536   3.839
 3737DLPE   D2B42608   6.777  27.274   4.155
 3737DLPE   D3B42609   6.917  27.258   4.556
 3737DLPE   C4B42610   6.831  26.942   4.876
 3738DLPE   NH342611  10.266   0.541   2.601
 3738DLPE   PO442612  10.509   0.570   2.848
 3738DLPE   GL142613  10.574   0.571   3.208
 3738DLPE   GL242614  10.627   0.779   3.383
 3738DLPE   C1A42615  10.563   0.371   3.606
 3738DLPE   D2A42616  10.773   0.378   4.079
 3738DLPE   D3A42617  11.117   0.641   4.083
 3738DLPE   C4A42618  11.350   0.736   4.516
 3738DLPE   C1B42619  10.665   0.822   3.772
 3738DLPE   D2B42620  10.558   0.931   4.242
 3738DLPE   D3B42621  10.848   0.762   4.554
 3738DLPE   C4B42622  10.680   1.187   4.695
 3739DLPE   NH342623   5.240   3.945   3.175
 3739DLPE   PO442624   5.433   4.164   3.056
 3739DLPE   GL142625   5.704   4.319   3.403
 3739DLPE   GL242626   5.810   4.040   3.498
 3739DLPE   C1A42627   5.572   4.628   3.734
 3739DLPE   D2A42628   5.592   4.567   4.241
 3739DLPE   D3A42629   5.390   4.426   4.654
 3739DLPE   C4A42630   4.980   4.314   4.794
 3739DLPE   C1B42631   5.860   4.208   3.849
 3739DLPE   D2B42632   6.058   4.653   3.814
 3739DLPE   D3B42633   6.217   5.071   3.901
 3739DLPE   C4B42634   6.288   5.503   4.127
 3740DLPE   NH342635  20.093  22.961   3.633
 3740DLPE   PO442636  20.355  22.785   3.718
 3740DLPE   GL142637  20.248  22.602   4.035
 3740DLPE   GL242638  20.019  22.443   4.038
 3740DLPE   C1A42639  20.392  22.871   4.355
 3740DLPE   D2A42640  20.703  22.876   4.758
 3740DLPE   D3A42641  20.782  23.225   4.999
 3740DLPE   C4A42642  20.927  23.590   4.730
 3740DLPE   C1B42643  19.857  22.397   4.425
 3740DLPE   D2B42644  19.702  22.298   4.875
 3740DLPE   D3B42645  19.983  22.396   5.186
 3740DLPE   C4B42646  20.058  22.004   5.487
 3741DLPE   NH342647   2.756  34.273   3.289
 3741DLPE   PO442648   2.909  33.959   3.433
 3741DLPE   GL142649   2.983  34.331   3.708
 3741DLPE   GL242650   2.733  34.296   3.735
 3741DLPE   C1A42651   2.958  34.468   4.109
 3741DLPE   D2A42652   2.675  34.524   4.515
 3741DLPE   D3A42653   2.444  34.792   4.762
 3741DLPE   C4A42654   2.258  35.015   5.155
 3741DLPE   C1B42655   2.701  34.014   4.121
 3741DLPE   D2B42656   2.986  33.637   4.414
 3741DLPE   D3B42657   3.034  33.689   4.889
 3741DLPE   C4B42658   2.797  33.418   5.202
 3742DLPE   NH342659  33.692   6.755   2.952
 3742DLPE   PO442660  33.399   6.863   3.145
 3742DLPE   GL142661  33.514   7.245   3.430
 3742DLPE   GL242662  33.302   7.326   3.461
 3742DLPE   C1A42663  33.658   7.296   3.841
 3742DLPE   D2A42664  33.449   7.411   4.298
 3742DLPE   D3A42665  33.090   7.200   4.460
 3742DLPE   C4A42666  32.957   7.039   4.833
 3742DLPE   C1B42667  33.197   7.321   3.887
 3742DLPE   D2B42668  32.776   7.085   4.029
 3742DLPE   D3B42669  32.697   6.949   4.416
 3742DLPE   C4B42670  32.606   6.666   4.813
 3743DLPE   NH342671  18.958  27.076   3.862
 3743DLPE   PO442672  19.170  27.243   3.636
 3743DLPE   GL142673  19.226  27.564   3.987
 3743DLPE   GL242674  19.401  27.290   4.071
 3743DLPE   C1A42675  19.069  27.693   4.373
 3743DLPE   D2A42676  18.725  27.800   4.776
 3743DLPE   D3A42677  18.407  27.972   5.004
 3743DLPE   C4A42678  18.327  28.492   4.961
 3743DLPE   C1B42679  19.228  27.221   4.442
 3743DLPE   D2B42680  19.406  26.999   4.835
 3743DLPE   D3B42681  19.374  26.598   4.893
 3743DLPE   C4B42682  19.102  26.326   5.181
 3744DLPE   NH342683  12.069  13.675   2.902
 3744DLPE   PO442684  12.420  13.641   2.988
 3744DLPE   GL142685  12.402  13.639   3.395
 3744DLPE   GL242686  12.088  13.526   3.343
 3744DLPE   C1A42687  12.401  13.977   3.639
 3744DLPE   D2A42688  12.572  14.289   4.018
 3744DLPE   D3A42689  12.281  14.614   3.890
 3744DLPE   C4A42690  11.810  14.829   3.881
 3744DLPE   C1B42691  11.934  13.188   3.733
 3744DLPE   D2B42692  11.860  12.957   4.180
 3744DLPE   D3B42693  11.738  12.897   4.610
 3744DLPE   C4B42694  11.420  12.963   4.896
 3745DLPE   NH342695  25.418  13.435   3.231
 3745DLPE   PO442696  25.735  13.284   3.108
 3745DLPE   GL142697  25.899  13.220   3.539
 3745DLPE   GL242698  25.986  12.929   3.527
 3745DLPE   C1A42699  25.623  13.286   3.850
 3745DLPE   D2A42700  25.235  13.369   4.210
 3745DLPE   D3A42701  25.461  13.286   4.592
 3745DLPE   C4A42702  25.387  13.699   4.899
 3745DLPE   C1B42703  25.866  12.666   3.815
 3745DLPE   D2B42704  25.563  12.300   3.934
 3745DLPE   D3B42705  25.407  12.055   4.314
 3745DLPE   C4B42706  25.181  12.316   4.604
 3746DLPE   NH342707  15.267   5.961   3.317
 3746DLPE   PO442708  15.076   5.796   3.564
 3746DLPE   GL142709  15.034   5.902   3.954
 3746DLPE   GL242710  14.758   5.879   4.044
 3746DLPE   C1A42711  15.187   6.242   4.203
 3746DLPE   D2A42712  15.279   6.729   4.444
 3746DLPE   D3A42713  14.831   6.791   4.510
 3746DLPE   C4A42714  14.713   6.969   4.118
 3746DLPE   C1B42715  14.799   5.819   4.482
 3746DLPE   D2B42716  14.694   5.932   4.991
 3746DLPE   D3B42717  15.138   6.082   4.751
 3746DLPE   C4B42718  15.305   5.770   5.048
 3747DLPE   NH342719  15.832  25.860   3.019
 3747DLPE   PO442720  15.765  26.107   3.260
 3747DLPE   GL142721  15.935  26.165   3.635
 3747DLPE   GL242722  16.217  26.330   3.486
 3747DLPE   C1A42723  15.989  26.062   4.076
 3747DLPE   D2A42724  16.053  25.719   4.399
 3747DLPE   D3A42725  15.853  25.883   4.806
 3747DLPE   C4A42726  15.677  26.239   4.944
 3747DLPE   C1B42727  16.621  26.478   3.769
 3747DLPE   D2B42728  16.976  26.402   4.034
 3747DLPE   D3B42729  16.884  26.245   4.435
 3747DLPE   C4B42730  16.741  26.169   4.886
 3748DLPE   NH342731  33.515  35.054   3.030
 3748DLPE   PO442732  33.561  35.387   2.926
 3748DLPE   GL142733  33.525  35.506   3.391
 3748DLPE   GL242734  33.769  35.339   3.359
 3748DLPE   C1A42735  33.594  35.711   3.730
 3748DLPE   D2A42736  33.493  35.349   4.041
 3748DLPE   D3A42737  33.346  35.449   4.460
 3748DLPE   C4A42738  33.525  35.685   4.876
 3748DLPE   C1B42739  33.915  35.211   3.762
 3748DLPE   D2B42740  34.109  35.277   4.214
 3748DLPE   D3B42741  34.477  35.316   4.522
 3748DLPE   C4B42742  34.831  35.522   4.688
 3749DLPE   NH342743  13.903  33.271   3.966
 3749DLPE   PO442744  14.175  33.020   3.966
 3749DLPE   GL142745  14.193  33.021   4.364
 3749DLPE   GL242746  14.213  33.362   4.344
 3749DLPE   C1A42747  14.415  33.059   4.737
 3749DLPE   D2A42748  14.508  33.393   4.994
 3749DLPE   D3A42749  14.580  32.996   5.233
 3749DLPE   C4A42750  14.944  32.988   5.532
 3749DLPE   C1B42751  14.381  33.611   4.578
 3749DLPE   D2B42752  14.321  33.822   5.053
 3749DLPE   D3B42753  14.555  33.752   5.417
 3749DLPE   C4B42754  14.873  33.456   5.360
 3750DLPE   NH342755  29.336   8.331   3.224
 3750DLPE   PO442756  29.165   8.658   3.298
 3750DLPE   GL142757  29.089   8.631   3.653
 3750DLPE   GL242758  29.247   8.750   3.851
 3750DLPE   C1A42759  28.682   8.475   3.712
 3750DLPE   D2A42760  28.332   8.160   3.482
 3750DLPE   D3A42761  28.323   7.734   3.639
 3750DLPE   C4A42762  28.191   8.078   3.999
 3750DLPE   C1B42763  29.445   9.148   4.027
 3750DLPE   D2B42764  29.282   9.517   4.267
 3750DLPE   D3B42765  29.180   9.793   3.969
 3750DLPE   C4B42766  29.545  10.068   3.782
 3751DLPE   NH342767  17.438   3.581   3.963
 3751DLPE   PO442768  17.520   3.293   4.106
 3751DLPE   GL142769  17.283   3.414   4.470
 3751DLPE   GL242770  17.511   3.634   4.527
 3751DLPE   C1A42771  17.132   3.430   4.880
 3751DLPE   D2A42772  16.762   3.235   5.171
 3751DLPE   D3A42773  17.153   3.050   5.125
 3751DLPE   C4A42774  17.240   2.616   5.082
 3751DLPE   C1B42775  17.308   3.877   4.850
 3751DLPE   D2B42776  17.297   4.185   5.284
 3751DLPE   D3B42777  17.531   4.277   5.611
 3751DLPE   C4B42778  17.676   4.698   5.493
 3752DLPE   NH342779  20.635  25.458   3.519
 3752DLPE   PO442780  20.634  25.126   3.584
 3752DLPE   GL142781  20.820  24.893   3.889
 3752DLPE   GL242782  20.895  25.208   3.904
 3752DLPE   C1A42783  21.138  24.802   4.203
 3752DLPE   D2A42784  21.077  24.392   4.414
 3752DLPE   D3A42785  21.343  24.100   4.223
 3752DLPE   C4A42786  21.092  23.635   4.214
 3752DLPE   C1B42787  20.715  25.150   4.295
 3752DLPE   D2B42788  20.742  25.299   4.767
 3752DLPE   D3B42789  21.175  25.454   4.821
 3752DLPE   C4B42790  21.127  25.245   5.176
 3753DLPE   NH342791   1.746  15.896   4.111
 3753DLPE   PO442792   1.930  15.932   3.837
 3753DLPE   GL142793   2.228  15.997   4.156
 3753DLPE   GL242794   2.074  16.069   4.345
 3753DLPE   C1A42795   2.535  16.198   4.381
 3753DLPE   D2A42796   2.991  16.063   4.528
 3753DLPE   D3A42797   3.214  16.429   4.712
 3753DLPE   C4A42798   3.641  16.515   4.693
 3753DLPE   C1B42799   2.092  16.238   4.809
 3753DLPE   D2B42800   1.994  16.167   5.286
 3753DLPE   D3B42801   2.086  16.077   5.725
 3753DLPE   C4B42802   1.763  16.305   5.947
 3754DLPE   NH342803   7.772   8.737   2.843
 3754DLPE   PO442804   7.811   9.059   2.976
 3754DLPE   GL142805   7.997   9.067   3.420
 3754DLPE   GL242806   8.021   8.854   3.368
 3754DLPE   C1A42807   8.037   9.299   3.789
 3754DLPE   D2A42808   8.138   9.183   4.283
 3754DLPE   D3A42809   7.777   9.260   4.561
 3754DLPE   C4A42810   7.321   9.247   4.634
 3754DLPE   C1B42811   7.973   8.759   3.795
 3754DLPE   D2B42812   8.026   8.535   4.290
 3754DLPE   D3B42813   7.649   8.784   4.425
 3754DLPE   C4B42814   7.639   8.856   4.881
 3755DLPE   NH342815   2.670  30.055   3.185
 3755DLPE   PO442816   2.418  30.076   3.439
 3755DLPE   GL142817   2.497  29.789   3.796
 3755DLPE   GL242818   2.619  30.028   3.913
 3755DLPE   C1A42819   2.950  29.648   3.987
 3755DLPE   D2A42820   3.070  29.926   4.346
 3755DLPE   D3A42821   2.826  30.032   4.729
 3755DLPE   C4A42822   2.579  30.429   4.966
 3755DLPE   C1B42823   2.883  30.295   4.064
 3755DLPE   D2B42824   2.927  30.758   3.796
 3755DLPE   D3B42825   2.693  31.118   3.843
 3755DLPE   C4B42826   2.464  31.297   4.217
 3756DLPE   NH342827   8.449  25.019   2.995
 3756DLPE   PO442828   8.351  24.708   3.120
 3756DLPE   GL142829   8.371  24.654   3.476
 3756DLPE   GL242830   8.610  24.582   3.665
 3756DLPE   C1A42831   8.119  24.832   3.847
 3756DLPE   D2A42832   7.881  24.944   4.273
 3756DLPE   D3A42833   7.783  24.715   4.658
 3756DLPE   C4A42834   7.894  24.250   4.616
 3756DLPE   C1B42835   8.591  24.770   3.975
 3756DLPE   D2B42836   8.691  25.125   4.297
 3756DLPE   D3B42837   8.335  25.300   4.584
 3756DLPE   C4B42838   8.222  25.002   4.988
 3757DLPE   NH342839  31.960  25.574   3.256
 3757DLPE   PO442840  32.115  25.292   3.348
 3757DLPE   GL142841  32.092  25.410   3.735
 3757DLPE   GL242842  31.791  25.534   3.722
 3757DLPE   C1A42843  32.036  25.320   4.204
 3757DLPE   D2A42844  31.851  25.451   4.669
 3757DLPE   D3A42845  31.758  25.214   5.020
 3757DLPE   C4A42846  31.618  24.755   5.022
 3757DLPE   C1B42847  31.642  25.702   4.087
 3757DLPE   D2B42848  31.425  25.834   4.484
 3757DLPE   D3B42849  31.335  26.012   4.856
 3757DLPE   C4B42850  31.040  26.252   5.084
 3758DLPE   NH342851  32.282  25.806   3.667
 3758DLPE   PO442852  32.618  25.866   3.595
 3758DLPE   GL142853  32.892  25.878   3.888
 3758DLPE   GL242854  32.973  25.619   3.915
 3758DLPE   C1A42855  32.914  25.933   4.356
 3758DLPE   D2A42856  32.995  26.195   4.725
 3758DLPE   D3A42857  32.830  26.498   4.471
 3758DLPE   C4A42858  32.821  26.993   4.377
 3758DLPE   C1B42859  33.004  25.451   4.341
 3758DLPE   D2B42860  33.019  25.513   4.826
 3758DLPE   D3B42861  32.602  25.325   5.010
 3758DLPE   C4B42862  32.608  25.209   4.534
 3759DLPE   NH342863  34.089  29.619   3.235
 3759DLPE   PO442864  34.151  29.312   3.372
 3759DLPE   GL142865  34.180  29.317   3.818
 3759DLPE   GL242866  34.212  29.088   3.836
 3759DLPE   C1A42867  34.320  29.346   4.179
 3759DLPE   D2A42868  34.404  29.464   4.618
 3759DLPE   D3A42869  34.475  29.712   4.967
 3759DLPE   C4A42870  34.778  29.338   5.045
 3759DLPE   C1B42871  34.596  28.898   3.862
 3759DLPE   D2B42872  35.053  28.742   4.089
 3759DLPE   D3B42873  35.224  28.644   4.466
 3759DLPE   C4B42874  35.151  28.528   4.917
 3760DLPE   NH342875  10.068   3.530   2.957
 3760DLPE   PO442876  10.321   3.258   2.974
 3760DLPE   GL142877  10.283   3.395   3.333
 3760DLPE   GL242878  10.273   3.709   3.376
 3760DLPE   C1A42879  10.365   3.227   3.688
 3760DLPE   D2A42880  10.341   3.179   4.186
 3760DLPE   D3A42881  10.408   3.353   4.608
 3760DLPE   C4A42882  10.334   3.198   5.042
 3760DLPE   C1B42883  10.573   3.878   3.692
 3760DLPE   D2B42884  10.882   3.879   4.108
 3760DLPE   D3B42885  10.581   3.659   4.254
 3760DLPE   C4B42886  10.735   3.888   4.600
 3761DLPE   NH342887  22.049  11.165   3.473
 3761DLPE   PO442888  21.988  11.501   3.548
 3761DLPE   GL142889  22.072  11.735   3.997
 3761DLPE   GL242890  21.858  11.744   4.010
 3761DLPE   C1A42891  22.332  11.755   4.298
 3761DLPE   D2A42892  22.655  11.604   4.683
 3761DLPE   D3A42893  22.712  11.901   4.890
 3761DLPE   C4A42894  22.865  12.080   5.314
 3761DLPE   C1B42895  21.870  11.837   4.395
 3761DLPE   D2B42896  21.644  11.747   4.790
 3761DLPE   D3B42897  21.285  11.587   4.731
 3761DLPE   C4B42898  20.960  11.527   5.011
 3762DLPE   NH342899  21.258  27.183   3.457
 3762DLPE   PO442900  20.999  26.973   3.595
 3762DLPE   GL142901  21.189  26.779   3.944
 3762DLPE   GL242902  20.989  26.663   4.039
 3762DLPE   C1A42903  21.410  26.797   4.287
 3762DLPE   D2A42904  21.733  26.803   4.692
 3762DLPE   D3A42905  21.742  26.572   5.083
 3762DLPE   C4A42906  22.124  26.646   5.283
 3762DLPE   C1B42907  20.954  26.798   4.459
 3762DLPE   D2B42908  20.839  26.889   4.939
 3762DLPE   D3B42909  20.971  27.302   4.996
 3762DLPE   C4B42910  21.288  27.308   5.321
 3763DLPE   NH342911  23.738  18.609   3.459
 3763DLPE   PO442912  23.915  18.830   3.711
 3763DLPE   GL142913  23.770  19.103   4.032
 3763DLPE   GL242914  23.828  19.311   4.072
 3763DLPE   C1A42915  23.561  18.825   4.287
 3763DLPE   D2A42916  23.583  18.353   4.493
 3763DLPE   D3A42917  23.496  18.527   4.879
 3763DLPE   C4A42918  23.080  18.639   5.110
 3763DLPE   C1B42919  23.591  19.313   4.454
 3763DLPE   D2B42920  23.374  19.272   4.853
 3763DLPE   D3B42921  23.487  19.051   5.250
 3763DLPE   C4B42922  23.460  18.665   5.450
 3764DLPE   NH342923  21.576  23.900   3.188
 3764DLPE   PO442924  21.791  23.594   3.287
 3764DLPE   GL142925  21.939  23.726   3.641
 3764DLPE   GL242926  21.887  24.024   3.689
 3764DLPE   C1A42927  22.059  23.590   4.037
 3764DLPE   D2A42928  22.194  23.866   4.410
 3764DLPE   D3A42929  22.364  23.779   4.820
 3764DLPE   C4A42930  22.874  23.558   4.840
 3764DLPE   C1B42931  21.849  24.123   4.140
 3764DLPE   D2B42932  21.813  24.155   4.701
 3764DLPE   D3B42933  22.109  24.170   5.027
 3764DLPE   C4B42934  22.230  24.565   5.118
 3765DLPE   NH342935  22.688   2.067   3.066
 3765DLPE   PO442936  22.965   2.295   3.038
 3765DLPE   GL142937  23.154   2.318   3.402
 3765DLPE   GL242938  23.220   2.089   3.388
 3765DLPE   C1A42939  22.937   2.398   3.730
 3765DLPE   D2A42940  22.937   2.035   4.084
 3765DLPE   D3A42941  22.681   1.926   4.444
 3765DLPE   C4A42942  22.474   1.601   4.747
 3765DLPE   C1B42943  23.332   1.871   3.758
 3765DLPE   D2B42944  23.483   1.629   4.121
 3765DLPE   D3B42945  23.258   1.717   4.513
 3765DLPE   C4B42946  23.036   1.701   4.912
 3766DLPE   NH342947  20.589  31.918   3.723
 3766DLPE   PO442948  20.493  31.595   3.799
 3766DLPE   GL142949  20.823  31.579   4.012
 3766DLPE   GL242950  21.003  31.785   3.810
 3766DLPE   C1A42951  20.795  31.505   4.368
 3766DLPE   D2A42952  20.789  31.702   4.851
 3766DLPE   D3A42953  20.696  31.512   5.249
 3766DLPE   C4A42954  20.573  31.954   5.333
 3766DLPE   C1B42955  21.067  31.918   4.191
 3766DLPE   D2B42956  20.945  32.273   4.526
 3766DLPE   D3B42957  20.714  32.292   4.914
 3766DLPE   C4B42958  21.109  32.511   5.130
 3767DLPE   NH342959  25.317  28.803   2.892
 3767DLPE   PO442960  25.099  29.104   2.941
 3767DLPE   GL142961  24.956  29.263   3.317
 3767DLPE   GL242962  25.132  29.072   3.430
 3767DLPE   C1A42963  24.651  29.452   3.550
 3767DLPE   D2A42964  24.291  29.553   3.902
 3767DLPE   D3A42965  24.109  29.239   4.142
 3767DLPE   C4A42966  23.682  28.998   4.037
 3767DLPE   C1B42967  25.475  29.417   3.583
 3767DLPE   D2B42968  25.439  29.635   4.033
 3767DLPE   D3B42969  25.464  29.668   4.440
 3767DLPE   C4B42970  25.502  30.098   4.662
 3768DLPE   NH342971   6.583  28.493   3.436
 3768DLPE   PO442972   6.808  28.653   3.652
 3768DLPE   GL142973   6.541  28.444   3.965
 3768DLPE   GL242974   6.472  28.738   3.981
 3768DLPE   C1A42975   6.727  28.418   4.416
 3768DLPE   D2A42976   6.675  28.720   4.831
 3768DLPE   D3A42977   6.365  28.400   4.908
 3768DLPE   C4A42978   6.519  28.266   5.337
 3768DLPE   C1B42979   6.335  28.805   4.421
 3768DLPE   D2B42980   6.200  28.855   4.868
 3768DLPE   D3B42981   6.501  29.147   5.034
 3768DLPE   C4B42982   6.725  29.282   4.600
 3769DLPE   NH342983   2.277  23.376   3.815
 3769DLPE   PO442984   2.222  23.734   3.741
 3769DLPE   GL142985   2.139  23.976   4.178
 3769DLPE   GL242986   2.324  23.620   4.188
 3769DLPE   C1A42987   1.992  24.302   4.523
 3769DLPE   D2A42988   1.692  24.506   4.842
 3769DLPE   D3A42989   1.397  24.551   5.168
 3769DLPE   C4A42990   1.456  24.522   5.647
 3769DLPE   C1B42991   2.674  23.442   4.406
 3769DLPE   D2B42992   3.104  23.194   4.471
 3769DLPE   D3B42993   3.418  22.992   4.743
 3769DLPE   C4B42994   3.373  22.795   5.197
 3770DLPE   NH342995  32.603  31.061   3.369
 3770DLPE   PO442996  32.681  30.768   3.475
 3770DLPE   GL142997  32.452  30.446   3.688
 3770DLPE   GL242998  32.704  30.394   3.871
 3770DLPE   C1A42999  32.074  30.367   3.970
 3770DLPE   D2A43000  32.017  30.178   4.500
 3770DLPE   D3A43001  31.964  30.347   4.946
 3770DLPE   C4A43002  31.955  30.162   5.383
 3770DLPE   C1B43003  32.888  30.151   4.236
 3770DLPE   D2B43004  33.065  29.932   4.703
 3770DLPE   D3B43005  32.788  29.884   4.992
 3770DLPE   C4B43006  32.376  30.116   5.168
 3771DLPE   NH343007  33.812   0.743   2.985
 3771DLPE   PO443008  33.603   0.866   3.281
 3771DLPE   GL143009  33.615   0.596   3.589
 3771DLPE   GL243010  33.612   0.946   3.710
 3771DLPE   C1A43011  33.592   0.446   3.978
 3771DLPE   D2A43012  33.679   0.385   4.448
 3771DLPE   D3A43013  33.383   0.123   4.707
 3771DLPE   C4A43014  33.054  -0.176   4.540
 3771DLPE   C1B43015  33.476   0.932   4.147
 3771DLPE   D2B43016  33.633   0.918   4.609
 3771DLPE   D3B43017  33.759   1.322   4.833
 3771DLPE   C4B43018  33.517   1.539   5.138
 3772DLPE   NH343019  22.348   3.506   2.691
 3772DLPE   PO443020  22.451   3.202   2.894
 3772DLPE   GL143021  22.388   3.494   3.266
 3772DLPE   GL243022  22.654   3.330   3.375
 3772DLPE   C1A43023  22.009   3.368   3.483
 3772DLPE   D2A43024  21.658   3.676   3.731
 3772DLPE   D3A43025  21.796   3.928   4.078
 3772DLPE   C4A43026  22.220   3.807   4.351
 3772DLPE   C1B43027  22.882   3.131   3.696
 3772DLPE   D2B43028  23.063   2.928   4.110
 3772DLPE   D3B43029  22.656   3.035   4.282
 3772DLPE   C4B43030  22.347   3.286   4.550
 3773DLPE   NH343031   8.469  33.844   3.099
 3773DLPE   PO443032   8.698  34.066   3.213
 3773DLPE   GL143033   8.525  34.157   3.601
 3773DLPE   GL243034   8.525  33.866   3.610
 3773DLPE   C1A43035   8.618  34.422   3.941
 3773DLPE   D2A43036   8.808  34.615   4.358
 3773DLPE   D3A43037   8.975  34.491   4.742
 3773DLPE   C4A43038   9.491  34.457   4.774
 3773DLPE   C1B43039   8.497  33.933   4.127
 3773DLPE   D2B43040   8.614  34.183   4.644
 3773DLPE   D3B43041   8.738  33.878   4.996
 3773DLPE   C4B43042   8.915  33.567   5.346
 3774DLPE   NH343043   3.786  22.827   3.453
 3774DLPE   PO443044   3.678  22.514   3.601
 3774DLPE   GL143045   3.747  22.667   3.991
 3774DLPE   GL243046   3.951  22.845   3.999
 3774DLPE   C1A43047   3.532  22.537   4.387
 3774DLPE   D2A43048   3.254  22.462   4.779
 3774DLPE   D3A43049   3.269  22.116   4.964
 3774DLPE   C4A43050   3.599  22.349   5.170
 3774DLPE   C1B43051   4.099  23.115   4.309
 3774DLPE   D2B43052   4.259  23.373   4.698
 3774DLPE   D3B43053   4.352  23.278   5.098
 3774DLPE   C4B43054   4.678  22.960   5.180
 3775DLPE   NH343055  10.409   1.395   2.594
 3775DLPE   PO443056  10.042   1.423   2.614
 3775DLPE   GL143057  10.033   1.641   3.022
 3775DLPE   GL243058  10.285   1.462   3.084
 3775DLPE   C1A43059   9.622   1.727   3.255
 3775DLPE   D2A43060   9.366   1.977   3.578
 3775DLPE   D3A43061   9.668   1.862   3.850
 3775DLPE   C4A43062   9.989   2.068   3.633
 3775DLPE   C1B43063  10.409   1.193   3.383
 3775DLPE   D2B43064  10.192   0.800   3.608
 3775DLPE   D3B43065  10.198   1.123   3.951
 3775DLPE   C4B43066   9.768   1.344   4.059
 3776SSM    NC343067   1.785  27.383   3.481
 3776SSM    PO443068   1.444  27.596   3.561
 3776SSM    OH143069   1.378  27.482   3.873
 3776SSM    AM243070   1.597  27.589   4.032
 3776SSM    T1A43071   1.277  27.474   4.208
 3776SSM    C2A43072   1.311  27.468   4.622
 3776SSM    C3A43073   1.389  27.706   5.066
 3776SSM    C4A43074   1.382  27.837   5.597
 3776SSM    C1B43075   1.647  27.765   4.341
 3776SSM    C2B43076   1.801  27.551   4.820
 3776SSM    C3B43077   1.832  27.575   5.302
 3776SSM    C4B43078   2.124  27.625   5.683
 3777SSM    NC343079  26.105  14.595   3.582
 3777SSM    PO443080  25.774  14.810   3.619
 3777SSM    OH143081  25.583  14.776   3.951
 3777SSM    AM243082  25.486  15.072   3.923
 3777SSM    T1A43083  25.586  14.898   4.280
 3777SSM    C2A43084  25.645  15.063   4.629
 3777SSM    C3A43085  25.823  15.060   5.051
 3777SSM    C4A43086  25.941  15.077   5.456
 3777SSM    C1B43087  25.249  15.205   4.200
 3777SSM    C2B43088  25.224  15.348   4.666
 3777SSM    C3B43089  25.424  15.378   5.160
 3777SSM    C4B43090  25.615  15.434   5.623
 3778SSM    NC343091  11.764  15.952   3.191
 3778SSM    PO443092  11.823  16.342   3.171
 3778SSM    OH143093  12.063  16.539   3.397
 3778SSM    AM243094  11.978  16.360   3.637
 3778SSM    T1A43095  12.291  16.748   3.595
 3778SSM    C2A43096  12.416  16.948   3.922
 3778SSM    C3A43097  12.346  17.028   4.428
 3778SSM    C4A43098  12.480  17.027   4.919
 3778SSM    C1B43099  11.943  16.369   4.022
 3778SSM    C2B43100  11.920  16.375   4.545
 3778SSM    C3B43101  12.057  16.413   5.037
 3778SSM    C4B43102  12.129  16.548   5.565
 3779SSM    NC343103  19.482  26.553   3.177
 3779SSM    PO443104  19.374  26.409   3.558
 3779SSM    OH143105  19.225  26.630   3.794
 3779SSM    AM243106  19.153  26.381   3.969
 3779SSM    T1A43107  19.287  26.770   4.112
 3779SSM    C2A43108  19.120  26.734   4.507
 3779SSM    C3A43109  18.807  26.888   4.880
 3779SSM    C4A43110  18.810  27.102   5.372
 3779SSM    C1B43111  19.203  26.226   4.327
 3779SSM    C2B43112  18.902  25.951   4.581
 3779SSM    C3B43113  18.769  25.643   4.957
 3779SSM    C4B43114  18.824  25.636   5.454
 3780SSM    NC343115  20.626  33.626   3.069
 3780SSM    PO443116  20.669  33.858   3.413
 3780SSM    OH143117  20.720  33.721   3.773
 3780SSM    AM243118  20.536  33.490   3.803
 3780SSM    T1A43119  20.676  33.733   4.132
 3780SSM    C2A43120  20.578  33.815   4.542
 3780SSM    C3A43121  20.513  34.066   4.968
 3780SSM    C4A43122  20.539  34.352   5.333
 3780SSM    C1B43123  20.300  33.429   4.125
 3780SSM    C2B43124  19.924  33.173   4.337
 3780SSM    C3B43125  20.007  33.073   4.769
 3780SSM    C4B43126  20.083  32.908   5.225
 3781SSM    NC343127  26.120   5.984   2.813
 3781SSM    PO443128  26.349   5.656   2.773
 3781SSM    OH143129  26.379   5.470   3.129
 3781SSM    AM243130  26.232   5.715   3.232
 3781SSM    T1A43131  26.391   5.390   3.471
 3781SSM    C2A43132  26.396   5.476   3.883
 3781SSM    C3A43133  26.557   5.651   4.343
 3781SSM    C4A43134  26.366   5.837   4.793
 3781SSM    C1B43135  26.265   5.928   3.556
 3781SSM    C2B43136  26.028   6.044   4.005
 3781SSM    C3B43137  25.939   6.378   4.324
 3781SSM    C4B43138  25.754   6.613   4.630
 3782SSM    NC343139  27.200   4.421   3.640
 3782SSM    PO443140  27.461   4.156   3.688
 3782SSM    OH143141  27.645   4.504   3.729
 3782SSM    AM243142  27.704   4.515   4.030
 3782SSM    T1A43143  27.785   4.830   3.768
 3782SSM    C2A43144  27.874   5.058   4.033
 3782SSM    C3A43145  28.012   5.179   4.491
 3782SSM    C4A43146  28.070   5.174   5.022
 3782SSM    C1B43147  27.744   4.699   4.383
 3782SSM    C2B43148  27.655   4.896   4.716
 3782SSM    C3B43149  27.575   5.032   5.188
 3782SSM    C4B43150  27.390   5.156   5.583
 3783SSM    NC343151   4.818  16.022   3.013
 3783SSM    PO443152   4.718  16.140   3.343
 3783SSM    OH143153   4.737  16.470   3.511
 3783SSM    AM243154   4.752  16.368   3.793
 3783SSM    T1A43155   4.559  16.713   3.691
 3783SSM    C2A43156   4.462  16.956   4.053
 3783SSM    C3A43157   4.390  16.965   4.580
 3783SSM    C4A43158   4.270  17.026   5.048
 3783SSM    C1B43159   4.902  16.261   4.175
 3783SSM    C2B43160   5.184  15.953   4.494
 3783SSM    C3B43161   5.030  15.574   4.737
 3783SSM    C4B43162   4.684  15.290   4.977
 3784SSM    NC343163  16.230  29.616   3.253
 3784SSM    PO443164  15.966  29.460   3.539
 3784SSM    OH143165  16.160  29.309   3.827
 3784SSM    AM243166  15.972  29.446   4.020
 3784SSM    T1A43167  16.271  29.127   4.080
 3784SSM    C2A43168  16.269  29.242   4.436
 3784SSM    C3A43169  16.186  29.294   4.911
 3784SSM    C4A43170  16.093  29.217   5.365
 3784SSM    C1B43171  15.967  29.646   4.337
 3784SSM    C2B43172  15.915  29.765   4.817
 3784SSM    C3B43173  16.002  29.772   5.315
 3784SSM    C4B43174  15.940  29.710   5.815
 3785SSM    NC343175   1.735   7.945   3.192
 3785SSM    PO443176   1.403   7.939   3.395
 3785SSM    OH143177   1.226   7.623   3.483
 3785SSM    AM243178   1.178   7.733   3.766
 3785SSM    T1A43179   1.238   7.333   3.683
 3785SSM    C2A43180   1.112   7.177   4.020
 3785SSM    C3A43181   1.103   7.095   4.430
 3785SSM    C4A43182   1.162   6.979   4.872
 3785SSM    C1B43183   1.226   7.676   4.146
 3785SSM    C2B43184   1.069   7.751   4.630
 3785SSM    C3B43185   0.732   7.829   4.961
 3785SSM    C4B43186   0.358   7.951   5.160
 3786SSM    NC343187  12.731  28.318   2.846
 3786SSM    PO443188  12.967  28.324   3.183
 3786SSM    OH143189  12.789  28.360   3.464
 3786SSM    AM243190  13.052  28.429   3.620
 3786SSM    T1A43191  12.662  28.309   3.762
 3786SSM    C2A43192  12.471  28.294   4.083
 3786SSM    C3A43193  12.384  28.348   4.523
 3786SSM    C4A43194  12.204  28.170   4.908
 3786SSM    C1B43195  13.258  28.267   3.937
 3786SSM    C2B43196  13.251  28.024   4.396
 3786SSM    C3B43197  13.160  28.062   4.794
 3786SSM    C4B43198  12.924  27.916   5.251
 3787SSM    NC343199  15.644  30.441   3.551
 3787SSM    PO443200  15.239  30.584   3.444
 3787SSM    OH143201  15.136  30.629   3.804
 3787SSM    AM243202  15.384  30.517   3.935
 3787SSM    T1A43203  14.980  30.600   4.113
 3787SSM    C2A43204  14.793  30.557   4.462
 3787SSM    C3A43205  14.780  30.687   4.925
 3787SSM    C4A43206  14.699  30.671   5.398
 3787SSM    C1B43207  15.586  30.391   4.228
 3787SSM    C2B43208  15.727  30.268   4.719
 3787SSM    C3B43209  15.619  30.037   5.161
 3787SSM    C4B43210  15.534  29.918   5.612
 3788SSM    NC343211  28.392   2.029   3.142
 3788SSM    PO443212  28.155   1.828   3.355
 3788SSM    OH143213  28.262   1.743   3.697
 3788SSM    AM243214  28.145   1.964   3.843
 3788SSM    T1A43215  28.193   1.574   4.020
 3788SSM    C2A43216  28.046   1.470   4.337
 3788SSM    C3A43217  27.954   1.427   4.797
 3788SSM    C4A43218  27.831   1.531   5.314
 3788SSM    C1B43219  28.050   1.991   4.203
 3788SSM    C2B43220  27.705   2.045   4.632
 3788SSM    C3B43221  27.509   1.883   5.012
 3788SSM    C4B43222  27.317   1.568   5.346
 3789SSM    NC343223  18.159   6.764   3.520
 3789SSM    PO443224  18.060   6.364   3.578
 3789SSM    OH143225  18.280   6.368   3.885
 3789SSM    AM243226  18.027   6.373   4.054
 3789SSM    T1A43227  18.434   6.276   4.167
 3789SSM    C2A43228  18.458   6.260   4.567
 3789SSM    C3A43229  18.510   6.256   5.022
 3789SSM    C4A43230  18.603   6.053   5.435
 3789SSM    C1B43231  17.979   6.511   4.476
 3789SSM    C2B43232  17.814   6.359   5.007
 3789SSM    C3B43233  17.585   6.251   5.398
 3789SSM    C4B43234  17.507   5.874   5.654
 3790SSM    NC343235  27.577  23.589   2.998
 3790SSM    PO443236  27.857  23.692   3.283
 3790SSM    OH143237  27.935  23.745   3.665
 3790SSM    AM243238  27.904  24.037   3.634
 3790SSM    T1A43239  28.070  23.866   3.970
 3790SSM    C2A43240  27.959  24.069   4.331
 3790SSM    C3A43241  27.756  24.201   4.777
 3790SSM    C4A43242  27.480  24.540   4.968
 3790SSM    C1B43243  27.915  24.447   3.745
 3790SSM    C2B43244  28.027  24.589   4.273
 3790SSM    C3B43245  28.147  24.567   4.777
 3790SSM    C4B43246  28.294  24.167   5.176
 3791SSM    NC343247  10.333  27.347   2.897
 3791SSM    PO443248  10.339  27.613   3.222
 3791SSM    OH143249  10.006  27.633   3.436
 3791SSM    AM243250   9.900  27.365   3.345
 3791SSM    T1A43251   9.928  27.473   3.746
 3791SSM    C2A43252   9.886  27.470   4.139
 3791SSM    C3A43253   9.711  27.620   4.587
 3791SSM    C4A43254   9.354  27.299   4.796
 3791SSM    C1B43255   9.843  27.009   3.457
 3791SSM    C2B43256   9.780  26.515   3.761
 3791SSM    C3B43257   9.678  26.009   3.699
 3791SSM    C4B43258   9.862  25.633   3.931
 3792SSM    NC343259   3.848  14.404   3.769
 3792SSM    PO443260   3.788  14.018   3.707
 3792SSM    OH143261   3.746  13.879   4.027
 3792SSM    AM243262   3.611  14.115   4.148
 3792SSM    T1A43263   3.882  13.679   4.288
 3792SSM    C2A43264   4.035  13.588   4.651
 3792SSM    C3A43265   4.068  13.644   5.084
 3792SSM    C4A43266   4.055  13.727   5.541
 3792SSM    C1B43267   3.562  14.253   4.508
 3792SSM    C2B43268   3.560  14.283   4.994
 3792SSM    C3B43269   3.560  14.558   5.409
 3792SSM    C4B43270   3.356  14.785   5.754
 3793SSM    NC343271  33.690  30.215   3.751
 3793SSM    PO443272  34.064  30.296   3.858
 3793SSM    OH143273  34.058  30.386   4.197
 3793SSM    AM243274  34.288  30.185   4.280
 3793SSM    T1A43275  33.930  30.337   4.513
 3793SSM    C2A43276  33.792  30.319   4.869
 3793SSM    C3A43277  33.499  30.621   5.187
 3793SSM    C4A43278  33.147  30.493   5.415
 3793SSM    C1B43279  34.585  29.985   4.514
 3793SSM    C2B43280  34.989  29.861   4.804
 3793SSM    C3B43281  35.219  29.615   5.196
 3793SSM    C4B43282  35.683  29.485   5.263
 3794SSM    NC343283  14.367  23.083   3.180
 3794SSM    PO443284  14.728  23.052   3.066
 3794SSM    OH143285  14.865  22.843   3.281
 3794SSM    AM243286  14.990  23.051   3.447
 3794SSM    T1A43287  14.799  22.715   3.583
 3794SSM    C2A43288  14.696  22.739   3.911
 3794SSM    C3A43289  14.694  22.716   4.339
 3794SSM    C4A43290  14.807  22.714   4.851
 3794SSM    C1B43291  15.205  23.070   3.752
 3794SSM    C2B43292  15.548  23.172   4.154
 3794SSM    C3B43293  15.524  23.257   4.628
 3794SSM    C4B43294  15.518  23.252   5.112
 3795SSM    NC343295  14.881  22.193   2.873
 3795SSM    PO443296  14.577  21.938   2.931
 3795SSM    OH143297  14.545  21.677   3.209
 3795SSM    AM243298  14.474  21.845   3.445
 3795SSM    T1A43299  14.475  21.424   3.397
 3795SSM    C2A43300  14.301  21.439   3.756
 3795SSM    C3A43301  13.950  21.581   4.001
 3795SSM    C4A43302  13.590  21.754   4.261
 3795SSM    C1B43303  14.288  21.920   3.772
 3795SSM    C2B43304  14.153  22.019   4.258
 3795SSM    C3B43305  14.148  22.003   4.748
 3795SSM    C4B43306  13.829  22.056   5.133
 3796SSM    NC343307  15.561   8.350   3.637
 3796SSM    PO443308  15.713   8.667   3.470
 3796SSM    OH143309  15.843   8.831   3.780
 3796SSM    AM243310  15.590   8.774   3.922
 3796SSM    T1A43311  15.993   8.932   4.077
 3796SSM    C2A43312  16.069   8.942   4.441
 3796SSM    C3A43313  16.211   8.722   4.861
 3796SSM    C4A43314  16.648   8.619   4.924
 3796SSM    C1B43315  15.351   8.798   4.264
 3796SSM    C2B43316  15.664   8.854   4.738
 3796SSM    C3B43317  15.978   9.043   5.098
 3796SSM    C4B43318  16.132   8.790   5.497
 3797SSM    NC343319  10.591  32.551   3.035
 3797SSM    PO443320  10.210  32.424   3.007
 3797SSM    OH143321  10.176  32.363   3.387
 3797SSM    AM243322  10.198  32.655   3.409
 3797SSM    T1A43323  10.148  32.344   3.726
 3797SSM    C2A43324  10.027  32.430   4.051
 3797SSM    C3A43325  10.046  32.299   4.558
 3797SSM    C4A43326   9.948  32.299   5.048
 3797SSM    C1B43327  10.148  32.816   3.742
 3797SSM    C2B43328  10.152  32.805   4.281
 3797SSM    C3B43329  10.106  32.815   4.759
 3797SSM    C4B43330  10.046  32.848   5.301
 3798SSM    NC343331  25.955  15.967   2.923
 3798SSM    PO443332  25.934  15.994   3.315
 3798SSM    OH143333  25.826  15.788   3.607
 3798SSM    AM243334  25.951  15.982   3.786
 3798SSM    T1A43335  25.815  15.615   3.894
 3798SSM    C2A43336  25.774  15.422   4.243
 3798SSM    C3A43337  25.731  15.503   4.733
 3798SSM    C4A43338  25.872  15.659   5.132
 3798SSM    C1B43339  25.774  16.065   4.137
 3798SSM    C2B43340  25.704  16.040   4.628
 3798SSM    C3B43341  25.837  16.168   5.054
 3798SSM    C4B43342  26.045  16.288   5.382
 3799SSM    NC343343  10.687  28.350   2.775
 3799SSM    PO443344  10.438  28.189   3.009
 3799SSM    OH143345  10.372  28.089   3.357
 3799SSM    AM243346  10.632  27.967   3.392
 3799SSM    T1A43347  10.296  27.966   3.661
 3799SSM    C2A43348  10.162  27.932   3.998
 3799SSM    C3A43349  10.218  27.721   4.421
 3799SSM    C4A43350  10.186  27.300   4.726
 3799SSM    C1B43351  10.907  27.938   3.668
 3799SSM    C2B43352  11.143  27.617   3.994
 3799SSM    C3B43353  11.221  27.590   4.440
 3799SSM    C4B43354  11.071  27.786   4.847
 3800SSM    NC343355  27.838  13.898   3.533
 3800SSM    PO443356  27.841  13.585   3.353
 3800SSM    OH143357  27.758  13.401   3.659
 3800SSM    AM243358  28.034  13.329   3.719
 3800SSM    T1A43359  27.681  13.359   3.996
 3800SSM    C2A43360  27.792  13.259   4.363
 3800SSM    C3A43361  27.804  13.322   4.842
 3800SSM    C4A43362  27.579  13.368   5.268
 3800SSM    C1B43363  28.269  13.298   4.045
 3800SSM    C2B43364  28.219  13.345   4.596
 3800SSM    C3B43365  28.238  13.453   5.052
 3800SSM    C4B43366  28.374  13.777   5.477
 3801SSM    NC343367  17.517   9.744   3.480
 3801SSM    PO443368  17.395   9.416   3.346
 3801SSM    OH143369  17.362   9.336   3.697
 3801SSM    AM243370  17.179   9.571   3.768
 3801SSM    T1A43371  17.313   9.242   4.030
 3801SSM    C2A43372  17.334   9.367   4.389
 3801SSM    C3A43373  17.329   9.361   4.876
 3801SSM    C4A43374  17.279   9.462   5.368
 3801SSM    C1B43375  17.231   9.734   4.080
 3801SSM    C2B43376  17.238   9.861   4.568
 3801SSM    C3B43377  17.159   9.906   5.062
 3801SSM    C4B43378  16.809  10.012   5.362
 3802SSM    NC343379  25.667  25.982   2.913
 3802SSM    PO443380  25.591  26.269   3.190
 3802SSM    OH143381  25.863  26.315   3.474
 3802SSM    AM243382  25.870  26.612   3.382
 3802SSM    T1A43383  25.833  26.394   3.789
 3802SSM    C2A43384  25.978  26.523   4.162
 3802SSM    C3A43385  25.887  26.370   4.674
 3802SSM    C4A43386  25.758  26.128   5.039
 3802SSM    C1B43387  25.918  26.971   3.568
 3802SSM    C2B43388  25.625  27.244   3.879
 3802SSM    C3B43389  25.712  27.175   4.364
 3802SSM    C4B43390  25.654  27.068   4.813
 3803SSM    NC343391  24.844  32.249   3.542
 3803SSM    PO443392  24.464  32.365   3.485
 3803SSM    OH143393  24.414  32.564   3.840
 3803SSM    AM243394  24.693  32.461   3.915
 3803SSM    T1A43395  24.465  32.680   4.174
 3803SSM    C2A43396  24.568  32.809   4.508
 3803SSM    C3A43397  24.800  33.053   4.803
 3803SSM    C4A43398  24.972  33.279   5.185
 3803SSM    C1B43399  24.847  32.472   4.215
 3803SSM    C2B43400  25.118  32.687   4.651
 3803SSM    C3B43401  25.088  32.732   5.172
 3803SSM    C4B43402  24.990  32.821   5.647
 3804SSM    NC343403  29.923  26.735   3.149
 3804SSM    PO443404  29.568  26.844   3.065
 3804SSM    OH143405  29.573  27.095   3.336
 3804SSM    AM243406  29.523  26.911   3.556
 3804SSM    T1A43407  29.665  27.342   3.574
 3804SSM    C2A43408  29.873  27.274   3.893
 3804SSM    C3A43409  29.789  27.005   4.263
 3804SSM    C4A43410  29.859  26.897   4.776
 3804SSM    C1B43411  29.634  26.737   3.940
 3804SSM    C2B43412  29.638  26.536   4.486
 3804SSM    C3B43413  29.697  26.432   5.020
 3804SSM    C4B43414  30.009  26.461   5.570
 3805SSM    NC343415  13.081  27.538   2.654
 3805SSM    PO443416  12.698  27.553   2.837
 3805SSM    OH143417  12.679  27.816   3.115
 3805SSM    AM243418  12.605  27.579   3.325
 3805SSM    T1A43419  12.597  28.035   3.378
 3805SSM    C2A43420  12.430  27.899   3.719
 3805SSM    C3A43421  12.293  27.843   4.229
 3805SSM    C4A43422  12.046  27.732   4.649
 3805SSM    C1B43423  12.609  27.433   3.655
 3805SSM    C2B43424  12.542  27.375   4.174
 3805SSM    C3B43425  12.511  27.365   4.662
 3805SSM    C4B43426  12.213  27.375   5.016
 3806SSM    NC343427  13.829   7.209   3.008
 3806SSM    PO443428  13.903   7.120   3.395
 3806SSM    OH143429  13.690   7.100   3.711
 3806SSM    AM243430  13.923   7.073   3.907
 3806SSM    T1A43431  13.521   7.088   4.012
 3806SSM    C2A43432  13.638   7.027   4.405
 3806SSM    C3A43433  13.750   7.051   4.875
 3806SSM    C4A43434  13.687   6.986   5.397
 3806SSM    C1B43435  14.055   7.077   4.242
 3806SSM    C2B43436  14.114   7.293   4.731
 3806SSM    C3B43437  14.412   7.334   5.127
 3806SSM    C4B43438  14.689   7.585   5.458
 3807SSM    NC343439  31.337  28.255   3.663
 3807SSM    PO443440  31.079  28.514   3.539
 3807SSM    OH143441  31.007  28.610   3.899
 3807SSM    AM243442  30.727  28.693   3.799
 3807SSM    T1A43443  30.910  28.606   4.230
 3807SSM    C2A43444  30.844  28.589   4.608
 3807SSM    C3A43445  30.847  28.544   5.073
 3807SSM    C4A43446  31.320  28.480   5.338
 3807SSM    C1B43447  30.414  28.585   3.981
 3807SSM    C2B43448  29.871  28.543   4.086
 3807SSM    C3B43449  29.418  28.724   4.043
 3807SSM    C4B43450  28.974  28.925   3.970
 3808SSM    NC343451  16.562  32.508   2.480
 3808SSM    PO443452  16.385  32.653   2.779
 3808SSM    OH143453  16.207  32.536   3.061
 3808SSM    AM243454  16.187  32.816   3.200
 3808SSM    T1A43455  16.113  32.387   3.358
 3808SSM    C2A43456  16.098  32.281   3.715
 3808SSM    C3A43457  16.201  32.216   4.185
 3808SSM    C4A43458  16.188  32.337   4.691
 3808SSM    C1B43459  16.276  33.028   3.597
 3808SSM    C2B43460  16.211  33.197   4.080
 3808SSM    C3B43461  16.056  33.543   4.383
 3808SSM    C4B43462  16.080  34.045   4.563
 3809SSM    NC343463  27.218  15.521   3.285
 3809SSM    PO443464  26.871  15.609   3.104
 3809SSM    OH143465  26.660  15.648   3.409
 3809SSM    AM243466  26.826  15.490   3.586
 3809SSM    T1A43467  26.609  15.833   3.702
 3809SSM    C2A43468  26.606  16.072   3.996
 3809SSM    C3A43469  26.536  16.146   4.481
 3809SSM    C4A43470  26.411  16.203   4.992
 3809SSM    C1B43471  27.001  15.214   3.927
 3809SSM    C2B43472  27.185  15.119   4.373
 3809SSM    C3B43473  27.240  15.128   4.838
 3809SSM    C4B43474  27.439  15.059   5.333
 3810SSM    NC343475  33.494  17.770   3.669
 3810SSM    PO443476  33.508  18.112   3.869
 3810SSM    OH143477  33.673  18.281   4.169
 3810SSM    AM243478  33.381  18.322   4.270
 3810SSM    T1A43479  33.765  18.393   4.460
 3810SSM    C2A43480  33.989  18.417   4.843
 3810SSM    C3A43481  34.149  18.565   5.274
 3810SSM    C4A43482  34.056  18.799   5.711
 3810SSM    C1B43483  33.354  18.435   4.594
 3810SSM    C2B43484  33.307  18.748   5.038
 3810SSM    C3B43485  33.062  18.922   5.351
 3810SSM    C4B43486  32.701  19.183   5.222
 3811SSM    NC343487   6.018  17.072   3.349
 3811SSM    PO443488   6.240  16.842   3.127
 3811SSM    OH143489   6.485  16.757   3.414
 3811SSM    AM243490   6.338  16.937   3.590
 3811SSM    T1A43491   6.710  16.662   3.653
 3811SSM    C2A43492   6.856  16.639   3.982
 3811SSM    C3A43493   6.853  16.706   4.470
 3811SSM    C4A43494   6.845  16.657   4.951
 3811SSM    C1B43495   6.255  17.231   3.809
 3811SSM    C2B43496   6.427  17.493   4.162
 3811SSM    C3B43497   6.546  17.645   4.634
 3811SSM    C4B43498   6.666  17.811   5.104
 3812SSM    NC343499  33.996  33.467   3.502
 3812SSM    PO443500  33.858  33.790   3.321
 3812SSM    OH143501  33.736  33.868   3.699
 3812SSM    AM243502  33.828  34.145   3.612
 3812SSM    T1A43503  33.661  33.892   4.005
 3812SSM    C2A43504  33.445  33.755   4.282
 3812SSM    C3A43505  33.088  33.729   4.588
 3812SSM    C4A43506  32.619  33.920   4.568
 3812SSM    C1B43507  33.995  34.421   3.811
 3812SSM    C2B43508  34.253  34.852   3.706
 3812SSM    C3B43509  34.516  35.178   3.921
 3812SSM    C4B43510  34.874  35.361   4.179
 3813SSM    NC343511   4.010   9.127   3.254
 3813SSM    PO443512   4.223   9.276   3.567
 3813SSM    OH143513   4.110   9.240   3.910
 3813SSM    AM243514   4.171   9.519   4.015
 3813SSM    T1A43515   3.923   9.208   4.216
 3813SSM    C2A43516   3.741   9.332   4.562
 3813SSM    C3A43517   3.507   9.417   4.980
 3813SSM    C4A43518   3.377   9.540   5.417
 3813SSM    C1B43519   4.020   9.660   4.340
 3813SSM    C2B43520   3.913   9.726   4.817
 3813SSM    C3B43521   3.786   9.780   5.268
 3813SSM    C4B43522   3.584   9.992   5.695
 3814SSM    NC343523  27.621  29.826   2.340
 3814SSM    PO443524  27.241  29.829   2.487
 3814SSM    OH143525  27.018  30.077   2.727
 3814SSM    AM243526  27.300  30.119   2.882
 3814SSM    T1A43527  26.915  30.117   3.048
 3814SSM    C2A43528  26.846  30.235   3.444
 3814SSM    C3A43529  26.856  30.406   3.884
 3814SSM    C4A43530  26.814  30.233   4.384
 3814SSM    C1B43531  27.337  30.207   3.289
 3814SSM    C2B43532  27.260  30.039   3.751
 3814SSM    C3B43533  27.355  30.091   4.196
 3814SSM    C4B43534  27.687  30.208   4.558
 3815SSM    NC343535  18.598  24.554   3.728
 3815SSM    PO443536  18.174  24.562   3.798
 3815SSM    OH143537  18.154  24.298   3.984
 3815SSM    AM243538  18.458  24.273   4.065
 3815SSM    T1A43539  18.067  24.182   4.277
 3815SSM    C2A43540  18.230  23.988   4.620
 3815SSM    C3A43541  18.348  24.027   5.037
 3815SSM    C4A43542  18.649  24.128   5.458
 3815SSM    C1B43543  18.601  23.936   4.210
 3815SSM    C2B43544  18.680  23.700   4.603
 3815SSM    C3B43545  18.755  23.434   4.976
 3815SSM    C4B43546  18.660  23.008   5.191
 3816SSM    NC343547  29.226  25.088   3.116
 3816SSM    PO443548  29.435  24.767   3.169
 3816SSM    OH143549  29.610  24.648   3.432
 3816SSM    AM243550  29.425  24.696   3.648
 3816SSM    T1A43551  29.813  24.447   3.624
 3816SSM    C2A43552  30.134  24.453   3.914
 3816SSM    C3A43553  30.217  24.834   4.174
 3816SSM    C4A43554  30.295  25.194   4.498
 3816SSM    C1B43555  29.274  24.809   3.981
 3816SSM    C2B43556  29.235  24.837   4.470
 3816SSM    C3B43557  28.968  24.876   4.921
 3816SSM    C4B43558  28.767  24.939   5.398
 3817SSM    NC343559   9.209  34.961   2.958
 3817SSM    PO443560   9.109  34.702   3.258
 3817SSM    OH143561   8.969  35.004   3.504
 3817SSM    AM243562   8.772  34.829   3.613
 3817SSM    T1A43563   8.929  35.169   3.794
 3817SSM    C2A43564   8.721  35.308   4.087
 3817SSM    C3A43565   8.574  35.397   4.548
 3817SSM    C4A43566   8.601  35.503   5.047
 3817SSM    C1B43567   8.500  34.870   3.858
 3817SSM    C2B43568   8.245  35.084   4.273
 3817SSM    C3B43569   8.166  35.215   4.705
 3817SSM    C4B43570   8.092  35.330   5.142
 3818SSM    NC343571  35.488  22.640   3.507
 3818SSM    PO443572  35.134  22.714   3.706
 3818SSM    OH143573  35.389  22.793   3.947
 3818SSM    AM243574  35.359  22.491   4.079
 3818SSM    T1A43575  35.627  22.875   4.191
 3818SSM    C2A43576  35.995  22.830   4.321
 3818SSM    C3A43577  36.268  22.428   4.312
 3818SSM    C4A43578  36.661  22.162   4.321
 3818SSM    C1B43579  35.160  22.418   4.354
 3818SSM    C2B43580  34.833  22.586   4.696
 3818SSM    C3B43581  34.417  22.700   4.825
 3818SSM    C4B43582  34.320  23.068   5.175
 3819SSM    NC343583   4.707  35.853   3.398
 3819SSM    PO443584   4.713  35.467   3.480
 3819SSM    OH143585   4.915  35.375   3.770
 3819SSM    AM243586   4.648  35.295   3.918
 3819SSM    T1A43587   5.042  35.391   4.094
 3819SSM    C2A43588   5.034  35.214   4.425
 3819SSM    C3A43589   5.067  35.143   4.916
 3819SSM    C4A43590   5.351  35.394   5.245
 3819SSM    C1B43591   4.552  35.141   4.240
 3819SSM    C2B43592   4.606  35.111   4.714
 3819SSM    C3B43593   4.602  35.116   5.157
 3819SSM    C4B43594   4.593  35.151   5.615
 3820SSM    NC343595  16.782  22.179   3.670
 3820SSM    PO443596  16.801  21.792   3.690
 3820SSM    OH143597  16.641  21.888   4.024
 3820SSM    AM243598  16.863  22.070   4.117
 3820SSM    T1A43599  16.546  21.807   4.338
 3820SSM    C2A43600  16.514  21.869   4.747
 3820SSM    C3A43601  16.417  21.789   5.192
 3820SSM    C4A43602  16.208  21.681   5.638
 3820SSM    C1B43603  16.845  22.211   4.497
 3820SSM    C2B43604  16.769  22.395   4.945
 3820SSM    C3B43605  16.720  22.684   5.291
 3820SSM    C4B43606  16.409  22.979   5.638
 3821SSM    NC343607  30.295  31.281   3.183
 3821SSM    PO443608  30.221  31.008   2.917
 3821SSM    OH143609  30.165  30.737   3.112
 3821SSM    AM243610  30.216  30.828   3.387
 3821SSM    T1A43611  29.983  30.472   3.225
 3821SSM    C2A43612  29.782  30.351   3.556
 3821SSM    C3A43613  29.611  30.417   4.011
 3821SSM    C4A43614  29.376  30.611   4.383
 3821SSM    C1B43615  30.355  31.015   3.710
 3821SSM    C2B43616  30.521  30.926   4.208
 3821SSM    C3B43617  30.779  30.837   4.649
 3821SSM    C4B43618  30.833  30.695   5.134
 3822SSM    NC343619  14.492  34.195   3.085
 3822SSM    PO443620  14.560  34.576   3.025
 3822SSM    OH143621  14.864  34.480   3.263
 3822SSM    AM243622  14.685  34.518   3.500
 3822SSM    T1A43623  15.110  34.481   3.522
 3822SSM    C2A43624  15.276  34.554   3.856
 3822SSM    C3A43625  15.243  34.302   4.313
 3822SSM    C4A43626  15.440  34.261   4.816
 3822SSM    C1B43627  14.568  34.715   3.747
 3822SSM    C2B43628  14.612  34.834   4.269
 3822SSM    C3B43629  14.669  34.999   4.715
 3822SSM    C4B43630  14.624  35.177   5.192
 3823SSM    NC343631  20.587  28.608   3.389
 3823SSM    PO443632  20.555  28.906   3.627
 3823SSM    OH143633  20.503  29.025   3.993
 3823SSM    AM243634  20.647  28.771   4.057
 3823SSM    T1A43635  20.458  29.153   4.318
 3823SSM    C2A43636  20.565  29.241   4.696
 3823SSM    C3A43637  20.887  29.154   5.009
 3823SSM    C4A43638  21.372  29.322   4.899
 3823SSM    C1B43639  20.976  28.632   4.224
 3823SSM    C2B43640  21.183  28.261   4.555
 3823SSM    C3B43641  21.372  28.241   5.005
 3823SSM    C4B43642  21.257  28.383   5.472
 3824SSM    NC343643  20.187   4.097   3.513
 3824SSM    PO443644  19.900   4.162   3.718
 3824SSM    OH143645  19.822   4.319   4.012
 3824SSM    AM243646  19.595   4.494   4.005
 3824SSM    T1A43647  19.804   4.348   4.355
 3824SSM    C2A43648  19.786   4.361   4.789
 3824SSM    C3A43649  19.728   4.539   5.200
 3824SSM    C4A43650  20.043   4.568   5.584
 3824SSM    C1B43651  19.503   4.738   4.348
 3824SSM    C2B43652  19.543   5.010   4.764
 3824SSM    C3B43653  19.985   4.991   4.997
 3824SSM    C4B43654  20.476   4.834   5.065
 3825SSM    NC343655  22.068   5.418   2.759
 3825SSM    PO443656  22.078   5.344   3.127
 3825SSM    OH143657  22.038   5.575   3.428
 3825SSM    AM243658  21.875   5.364   3.591
 3825SSM    T1A43659  22.048   5.875   3.602
 3825SSM    C2A43660  22.129   6.056   3.920
 3825SSM    C3A43661  22.427   6.368   4.287
 3825SSM    C4A43662  22.406   6.739   4.016
 3825SSM    C1B43663  21.668   5.384   3.909
 3825SSM    C2B43664  21.378   5.566   4.330
 3825SSM    C3B43665  21.137   5.741   4.663
 3825SSM    C4B43666  20.725   5.746   4.904
 3826SSM    NC343667  19.716  19.508   3.277
 3826SSM    PO443668  19.839  19.334   3.593
 3826SSM    OH143669  20.163  19.278   3.854
 3826SSM    AM243670  20.007  19.475   4.021
 3826SSM    T1A43671  20.368  19.287   4.146
 3826SSM    C2A43672  20.429  19.364   4.536
 3826SSM    C3A43673  20.368  19.547   4.988
 3826SSM    C4A43674  20.323  19.951   5.333
 3826SSM    C1B43675  20.076  19.634   4.326
 3826SSM    C2B43676  19.991  19.860   4.781
 3826SSM    C3B43677  19.870  20.264   5.096
 3826SSM    C4B43678  19.924  20.540   5.435
 3827SSM    NC343679  23.930   2.737   2.970
 3827SSM    PO443680  23.817   2.989   3.227
 3827SSM    OH143681  24.042   2.963   3.530
 3827SSM    AM243682  23.799   2.846   3.716
 3827SSM    T1A43683  24.262   2.780   3.704
 3827SSM    C2A43684  24.089   2.527   3.913
 3827SSM    C3A43685  23.833   2.364   4.242
 3827SSM    C4A43686  23.398   2.218   4.255
 3827SSM    C1B43687  23.622   2.925   4.064
 3827SSM    C2B43688  23.420   2.685   4.492
 3827SSM    C3B43689  23.156   2.715   4.860
 3827SSM    C4B43690  22.957   2.796   5.327
 3828SSM    NC343691  19.597   8.582   3.416
 3828SSM    PO443692  19.653   8.925   3.617
 3828SSM    OH143693  19.958   9.044   3.868
 3828SSM    AM243694  19.708   8.984   4.047
 3828SSM    T1A43695  20.150   9.115   4.157
 3828SSM    C2A43696  20.345   9.142   4.408
 3828SSM    C3A43697  20.392   8.934   4.883
 3828SSM    C4A43698  20.499   8.910   5.361
 3828SSM    C1B43699  19.473   8.823   4.465
 3828SSM    C2B43700  19.283   8.770   4.971
 3828SSM    C3B43701  19.084   8.772   5.415
 3828SSM    C4B43702  18.935   8.706   5.895
 3829SSM    NC343703  21.509  22.272   3.787
 3829SSM    PO443704  21.874  22.159   3.694
 3829SSM    OH143705  22.070  22.124   3.957
 3829SSM    AM243706  21.964  21.853   4.042
 3829SSM    T1A43707  22.238  22.144   4.266
 3829SSM    C2A43708  22.364  22.079   4.613
 3829SSM    C3A43709  22.297  22.177   5.065
 3829SSM    C4A43710  22.522  22.159   5.487
 3829SSM    C1B43711  22.018  21.578   4.292
 3829SSM    C2B43712  21.933  21.105   4.637
 3829SSM    C3B43713  21.854  20.728   5.011
 3829SSM    C4B43714  21.709  20.435   5.347
 3830SSM    NC343715  29.843   4.436   3.350
 3830SSM    PO443716  30.167   4.193   3.355
 3830SSM    OH143717  30.176   3.957   3.653
 3830SSM    AM243718  29.974   4.153   3.819
 3830SSM    T1A43719  30.123   3.868   4.011
 3830SSM    C2A43720  30.157   3.886   4.407
 3830SSM    C3A43721  30.087   3.784   4.907
 3830SSM    C4A43722  29.983   3.587   5.340
 3830SSM    C1B43723  29.818   4.296   4.198
 3830SSM    C2B43724  29.825   4.200   4.657
 3830SSM    C3B43725  29.691   4.188   5.170
 3830SSM    C4B43726  29.649   3.928   5.591
 3831SSM    NC343727  19.897  34.387   3.661
 3831SSM    PO443728  20.051  34.728   3.571
 3831SSM    OH143729  20.125  35.030   3.697
 3831SSM    AM243730  20.427  35.025   3.778
 3831SSM    T1A43731  20.120  35.365   3.776
 3831SSM    C2A43732  20.028  35.601   4.101
 3831SSM    C3A43733  19.896  35.743   4.540
 3831SSM    C4A43734  19.838  35.723   5.039
 3831SSM    C1B43735  20.601  35.021   4.149
 3831SSM    C2B43736  20.689  35.139   4.622
 3831SSM    C3B43737  20.628  35.237   5.091
 3831SSM    C4B43738  20.814  35.409   5.474
 3832SSM    NC343739  14.158   2.817   3.214
 3832SSM    PO443740  14.059   3.198   3.178
 3832SSM    OH143741  14.028   3.123   3.530
 3832SSM    AM243742  13.746   3.059   3.561
 3832SSM    T1A43743  14.082   3.017   3.849
 3832SSM    C2A43744  14.131   3.112   4.279
 3832SSM    C3A43745  14.078   3.073   4.742
 3832SSM    C4A43746  14.288   2.989   5.208
 3832SSM    C1B43747  13.463   2.883   3.833
 3832SSM    C2B43748  13.225   2.706   4.238
 3832SSM    C3B43749  13.137   2.596   4.685
 3832SSM    C4B43750  13.357   2.686   5.137
 3833SSM    NC343751  13.931  19.736   3.405
 3833SSM    PO443752  14.025  20.119   3.488
 3833SSM    OH143753  13.804  20.282   3.771
 3833SSM    AM243754  13.757  20.033   3.881
 3833SSM    T1A43755  13.716  20.468   4.060
 3833SSM    C2A43756  13.615  20.642   4.369
 3833SSM    C3A43757  13.569  20.914   4.785
 3833SSM    C4A43758  13.609  21.289   5.048
 3833SSM    C1B43759  13.754  19.880   4.142
 3833SSM    C2B43760  13.716  19.912   4.649
 3833SSM    C3B43761  13.537  20.060   5.091
 3833SSM    C4B43762  13.543  20.328   5.550
 3834SSM    NC343763  21.552  17.781   3.496
 3834SSM    PO443764  21.252  17.502   3.532
 3834SSM    OH143765  21.033  17.571   3.833
 3834SSM    AM243766  21.171  17.340   3.983
 3834SSM    T1A43767  20.876  17.656   4.127
 3834SSM    C2A43768  20.816  17.735   4.524
 3834SSM    C3A43769  20.752  17.855   4.952
 3834SSM    C4A43770  20.555  17.796   5.392
 3834SSM    C1B43771  21.305  17.339   4.271
 3834SSM    C2B43772  21.485  17.262   4.757
 3834SSM    C3B43773  21.669  17.257   5.163
 3834SSM    C4B43774  21.855  17.133   5.551
 3835SSM    NC343775  35.805  34.781   3.222
 3835SSM    PO443776  36.106  34.516   3.297
 3835SSM    OH143777  36.143  34.479   3.641
 3835SSM    AM243778  35.887  34.654   3.700
 3835SSM    T1A43779  36.119  34.447   3.981
 3835SSM    C2A43780  36.184  34.312   4.338
 3835SSM    C3A43781  36.254  34.088   4.774
 3835SSM    C4A43782  36.407  33.923   5.165
 3835SSM    C1B43783  35.685  34.832   3.949
 3835SSM    C2B43784  35.452  34.788   4.467
 3835SSM    C3B43785  35.309  34.776   4.937
 3835SSM    C4B43786  35.176  35.130   5.328
 3836SSM    NC343787   7.331  16.485   3.091
 3836SSM    PO443788   7.096  16.267   3.346
 3836SSM    OH143789   7.268  16.366   3.671
 3836SSM    AM243790   7.168  16.173   3.864
 3836SSM    T1A43791   7.345  16.612   3.895
 3836SSM    C2A43792   7.416  16.796   4.297
 3836SSM    C3A43793   7.198  16.970   4.730
 3836SSM    C4A43794   7.090  17.201   5.145
 3836SSM    C1B43795   7.174  16.017   4.214
 3836SSM    C2B43796   7.145  15.766   4.678
 3836SSM    C3B43797   7.127  15.575   5.088
 3836SSM    C4B43798   7.163  15.316   5.489
 3837SSM    NC343799  14.828  29.400   3.385
 3837SSM    PO443800  15.091  29.559   3.707
 3837SSM    OH143801  14.978  29.546   4.088
 3837SSM    AM243802  14.985  29.835   4.091
 3837SSM    T1A43803  14.797  29.558   4.389
 3837SSM    C2A43804  14.755  29.552   4.714
 3837SSM    C3A43805  14.686  29.471   5.204
 3837SSM    C4A43806  14.476  29.361   5.639
 3837SSM    C1B43807  15.084  30.133   4.248
 3837SSM    C2B43808  15.231  30.409   4.662
 3837SSM    C3B43809  15.502  30.547   5.092
 3837SSM    C4B43810  15.562  30.828   5.463
 3838SSM    NC343811  28.164  12.891   3.698
 3838SSM    PO443812  28.433  12.639   3.722
 3838SSM    OH143813  28.272  12.521   4.055
 3838SSM    AM243814  28.437  12.266   4.080
 3838SSM    T1A43815  28.155  12.384   4.359
 3838SSM    C2A43816  28.192  12.160   4.613
 3838SSM    C3A43817  28.320  11.826   4.937
 3838SSM    C4A43818  28.680  11.754   5.234
 3838SSM    C1B43819  28.656  12.105   4.382
 3838SSM    C2B43820  28.898  12.057   4.879
 3838SSM    C3B43821  29.252  11.894   5.252
 3838SSM    C4B43822  29.597  11.762   5.620
 3839SSM    NC343823  29.009   1.301   3.390
 3839SSM    PO443824  29.379   1.139   3.349
 3839SSM    OH143825  29.470   0.919   3.634
 3839SSM    AM243826  29.173   0.836   3.664
 3839SSM    T1A43827  29.452   0.919   3.968
 3839SSM    C2A43828  29.485   0.896   4.388
 3839SSM    C3A43829  29.478   0.947   4.898
 3839SSM    C4A43830  29.646   1.205   5.273
 3839SSM    C1B43831  28.873   0.806   3.821
 3839SSM    C2B43832  28.770   0.628   4.346
 3839SSM    C3B43833  28.511   0.479   4.702
 3839SSM    C4B43834  28.349   0.117   5.087
 3840SSM    NC343835  33.191  23.660   3.529
 3840SSM    PO443836  32.805  23.652   3.540
 3840SSM    OH143837  32.695  23.469   3.772
 3840SSM    AM243838  32.495  23.675   3.872
 3840SSM    T1A43839  32.823  23.332   4.080
 3840SSM    C2A43840  32.740  23.476   4.425
 3840SSM    C3A43841  32.655  23.311   4.820
 3840SSM    C4A43842  32.387  23.016   5.170
 3840SSM    C1B43843  32.165  23.837   4.137
 3840SSM    C2B43844  32.051  23.809   4.620
 3840SSM    C3B43845  31.965  23.951   5.068
 3840SSM    C4B43846  31.665  24.138   5.371
 3841SSM    NC343847  21.361   4.577   3.014
 3841SSM    PO443848  21.565   4.313   3.257
 3841SSM    OH143849  21.777   4.350   3.534
 3841SSM    AM243850  21.662   4.623   3.612
 3841SSM    T1A43851  21.944   4.344   3.803
 3841SSM    C2A43852  21.880   4.462   4.171
 3841SSM    C3A43853  21.957   4.639   4.595
 3841SSM    C4A43854  22.156   4.604   5.038
 3841SSM    C1B43855  21.431   4.689   3.977
 3841SSM    C2B43856  21.148   4.702   4.426
 3841SSM    C3B43857  20.996   4.819   4.846
 3841SSM    C4B43858  21.015   4.750   5.351
 3842SSM    NC343859  34.115   3.359   3.087
 3842SSM    PO443860  34.429   3.268   3.215
 3842SSM    OH143861  34.377   3.061   3.503
 3842SSM    AM243862  34.657   3.101   3.576
 3842SSM    T1A43863  34.292   3.106   3.856
 3842SSM    C2A43864  34.030   2.971   4.153
 3842SSM    C3A43865  33.686   2.973   4.483
 3842SSM    C4A43866  33.405   2.968   4.909
 3842SSM    C1B43867  34.924   3.132   3.874
 3842SSM    C2B43868  35.009   3.187   4.352
 3842SSM    C3B43869  35.051   3.420   4.715
 3842SSM    C4B43870  35.069   3.767   5.040
 3843SSM    NC343871  24.308  19.430   3.109
 3843SSM    PO443872  23.996  19.559   3.336
 3843SSM    OH143873  23.902  19.755   3.646
 3843SSM    AM243874  24.060  19.578   3.843
 3843SSM    T1A43875  23.915  19.978   3.923
 3843SSM    C2A43876  23.974  20.201   4.277
 3843SSM    C3A43877  24.125  20.242   4.676
 3843SSM    C4A43878  24.205  20.489   5.004
 3843SSM    C1B43879  24.034  19.651   4.247
 3843SSM    C2B43880  23.848  19.768   4.652
 3843SSM    C3B43881  23.603  19.803   5.046
 3843SSM    C4B43882  23.635  20.017   5.473
 3844SSM    NC343883  15.691  17.613   4.032
 3844SSM    PO443884  15.955  17.559   3.743
 3844SSM    OH143885  16.166  17.524   4.025
 3844SSM    AM243886  16.070  17.771   4.205
 3844SSM    T1A43887  16.429  17.456   4.196
 3844SSM    C2A43888  16.606  17.193   4.418
 3844SSM    C3A43889  16.856  16.986   4.692
 3844SSM    C4A43890  17.085  16.910   5.084
 3844SSM    C1B43891  15.839  17.788   4.551
 3844SSM    C2B43892  15.762  18.124   4.942
 3844SSM    C3B43893  15.767  18.366   5.360
 3844SSM    C4B43894  15.552  18.326   5.785
 3845SSM    NC343895  12.992  19.583   3.181
 3845SSM    PO443896  13.087  19.593   3.577
 3845SSM    OH143897  12.876  19.429   3.842
 3845SSM    AM243898  12.925  19.688   4.011
 3845SSM    T1A43899  12.806  19.292   4.156
 3845SSM    C2A43900  12.843  19.354   4.570
 3845SSM    C3A43901  12.974  19.167   5.033
 3845SSM    C4A43902  12.969  18.992   5.506
 3845SSM    C1B43903  12.890  19.900   4.326
 3845SSM    C2B43904  12.924  20.087   4.783
 3845SSM    C3B43905  12.954  20.323   5.246
 3845SSM    C4B43906  13.089  20.391   5.672
 3846SSM    NC343907  32.536  24.394   3.348
 3846SSM    PO443908  32.143  24.350   3.451
 3846SSM    OH143909  32.028  24.545   3.779
 3846SSM    AM243910  32.311  24.500   3.911
 3846SSM    T1A43911  31.837  24.658   4.058
 3846SSM    C2A43912  31.891  24.818   4.403
 3846SSM    C3A43913  32.115  24.946   4.882
 3846SSM    C4A43914  32.173  25.053   5.334
 3846SSM    C1B43915  32.473  24.362   4.188
 3846SSM    C2B43916  32.499  24.129   4.611
 3846SSM    C3B43917  32.501  23.756   4.870
 3846SSM    C4B43918  32.727  23.630   5.325
 3847SSM    NC343919  28.381   3.804   3.270
 3847SSM    PO443920  28.761   3.838   3.414
 3847SSM    OH143921  28.788   3.942   3.753
 3847SSM    AM243922  28.592   3.727   3.875
 3847SSM    T1A43923  28.834   4.082   4.061
 3847SSM    C2A43924  28.631   3.955   4.359
 3847SSM    C3A43925  28.360   3.803   4.683
 3847SSM    C4A43926  28.073   3.709   5.056
 3847SSM    C1B43927  28.259   3.727   4.087
 3847SSM    C2B43928  27.912   3.594   4.430
 3847SSM    C3B43929  27.732   3.449   4.821
 3847SSM    C4B43930  27.599   3.466   5.295
 3848SSM    NC343931  31.044   4.583   3.291
 3848SSM    PO443932  31.241   4.233   3.313
 3848SSM    OH143933  31.366   4.072   3.648
 3848SSM    AM243934  31.625   4.204   3.622
 3848SSM    T1A43935  31.358   4.111   3.990
 3848SSM    C2A43936  31.296   4.036   4.375
 3848SSM    C3A43937  31.113   4.003   4.822
 3848SSM    C4A43938  30.991   4.038   5.300
 3848SSM    C1B43939  31.853   4.343   3.870
 3848SSM    C2B43940  31.813   4.255   4.362
 3848SSM    C3B43941  31.696   4.184   4.865
 3848SSM    C4B43942  31.507   4.135   5.346
 3849SSM    NC343943   7.866  19.573   2.941
 3849SSM    PO443944   8.224  19.494   3.129
 3849SSM    OH143945   8.092  19.477   3.530
 3849SSM    AM243946   8.364  19.358   3.595
 3849SSM    T1A43947   8.100  19.401   3.888
 3849SSM    C2A43948   8.140  19.380   4.252
 3849SSM    C3A43949   8.177  19.401   4.729
 3849SSM    C4A43950   8.137  19.423   5.181
 3849SSM    C1B43951   8.550  19.249   3.922
 3849SSM    C2B43952   8.684  19.465   4.382
 3849SSM    C3B43953   8.748  19.787   4.721
 3849SSM    C4B43954   8.805  20.056   5.119
 3850SSM    NC343955  28.652  19.144   3.276
 3850SSM    PO443956  28.352  18.961   3.127
 3850SSM    OH143957  28.256  18.711   3.423
 3850SSM    AM243958  28.524  18.607   3.432
 3850SSM    T1A43959  28.209  18.554   3.718
 3850SSM    C2A43960  28.275  18.655   4.077
 3850SSM    C3A43961  28.391  19.057   4.314
 3850SSM    C4A43962  28.184  19.360   4.648
 3850SSM    C1B43963  28.647  18.479   3.746
 3850SSM    C2B43964  28.773  18.493   4.245
 3850SSM    C3B43965  28.574  18.691   4.622
 3850SSM    C4B43966  28.489  18.869   5.064
 3851SSM    NC343967   1.055  32.582   3.638
 3851SSM    PO443968   0.785  32.874   3.671
 3851SSM    OH143969   0.671  32.855   4.011
 3851SSM    AM243970   0.606  33.143   4.017
 3851SSM    T1A43971   0.500  32.871   4.293
 3851SSM    C2A43972   0.374  32.818   4.665
 3851SSM    C3A43973   0.085  33.031   5.047
 3851SSM    C4A43974  -0.346  33.296   5.213
 3851SSM    C1B43975   0.709  33.439   4.229
 3851SSM    C2B43976   0.608  33.733   4.652
 3851SSM    C3B43977   0.747  34.152   4.874
 3851SSM    C4B43978   0.908  34.585   5.047
 3852SSM    NC343979   8.382  14.005   3.510
 3852SSM    PO443980   8.089  14.215   3.391
 3852SSM    OH143981   7.939  14.111   3.719
 3852SSM    AM243982   7.999  14.381   3.847
 3852SSM    T1A43983   7.679  14.037   3.936
 3852SSM    C2A43984   7.602  13.949   4.292
 3852SSM    C3A43985   7.554  13.739   4.720
 3852SSM    C4A43986   7.147  13.578   4.987
 3852SSM    C1B43987   8.086  14.607   4.140
 3852SSM    C2B43988   8.214  14.671   4.641
 3852SSM    C3B43989   8.543  14.608   4.981
 3852SSM    C4B43990   8.941  14.408   5.250
 3853SSM    NC343991  23.878   7.602   3.145
 3853SSM    PO443992  23.948   7.210   3.194
 3853SSM    OH143993  23.782   6.991   3.479
 3853SSM    AM243994  23.647   7.242   3.569
 3853SSM    T1A43995  23.681   6.860   3.775
 3853SSM    C2A43996  23.581   6.583   4.057
 3853SSM    C3A43997  23.661   6.385   4.474
 3853SSM    C4A43998  23.877   6.182   4.940
 3853SSM    C1B43999  23.645   7.453   3.950
 3853SSM    C2B44000  23.749   7.456   4.498
 3853SSM    C3B44001  23.685   7.639   4.885
 3853SSM    C4B44002  23.659   7.489   5.360
 3854SSM    NC344003  13.748   0.136   2.891
 3854SSM    PO444004  13.424   0.326   2.965
 3854SSM    OH144005  13.354   0.213   3.314
 3854SSM    AM244006  13.269   0.485   3.391
 3854SSM    T1A44007  13.308   0.168   3.638
 3854SSM    C2A44008  13.168   0.164   4.034
 3854SSM    C3A44009  13.041   0.104   4.497
 3854SSM    C4A44010  13.125   0.329   4.874
 3854SSM    C1B44011  13.222   0.699   3.730
 3854SSM    C2B44012  13.213   0.806   4.250
 3854SSM    C3B44013  13.142   0.985   4.685
 3854SSM    C4B44014  12.981   1.146   5.111
 3855SSM    NC344015  17.073   8.858   3.726
 3855SSM    PO444016  17.414   8.939   3.480
 3855SSM    OH144017  17.654   8.690   3.619
 3855SSM    AM244018  17.591   8.813   3.896
 3855SSM    T1A44019  17.662   8.400   3.836
 3855SSM    C2A44020  17.547   8.221   4.200
 3855SSM    C3A44021  17.472   8.087   4.656
 3855SSM    C4A44022  17.347   8.167   5.101
 3855SSM    C1B44023  17.514   8.739   4.288
 3855SSM    C2B44024  17.335   8.892   4.735
 3855SSM    C3B44025  16.970   9.009   5.095
 3855SSM    C4B44026  16.743   9.146   5.558
 3856SSM    NC344027   2.416  31.530   3.155
 3856SSM    PO444028   2.106  31.287   3.299
 3856SSM    OH144029   2.171  31.091   3.642
 3856SSM    AM244030   2.080  31.330   3.785
 3856SSM    T1A44031   2.287  30.979   3.939
 3856SSM    C2A44032   2.120  30.852   4.279
 3856SSM    C3A44033   2.198  30.830   4.813
 3856SSM    C4A44034   2.352  30.794   5.271
 3856SSM    C1B44035   2.014  31.412   4.161
 3856SSM    C2B44036   1.717  31.712   4.491
 3856SSM    C3B44037   1.651  32.046   4.851
 3856SSM    C4B44038   1.404  31.977   5.311
 3857SSM    NC344039  19.058   9.176   3.425
 3857SSM    PO444040  19.179   8.814   3.581
 3857SSM    OH144041  19.135   8.949   3.906
 3857SSM    AM244042  18.823   8.859   3.909
 3857SSM    T1A44043  19.096   8.929   4.242
 3857SSM    C2A44044  19.004   8.952   4.625
 3857SSM    C3A44045  18.748   8.856   5.000
 3857SSM    C4A44046  18.653   8.934   5.507
 3857SSM    C1B44047  18.579   8.708   4.158
 3857SSM    C2B44048  18.455   8.551   4.661
 3857SSM    C3B44049  18.353   8.529   5.132
 3857SSM    C4B44050  18.420   8.304   5.556
 3858SSM    NC344051  16.001  18.489   3.898
 3858SSM    PO444052  15.831  18.155   4.026
 3858SSM    OH144053  15.905  18.312   4.375
 3858SSM    AM244054  15.603  18.316   4.468
 3858SSM    T1A44055  15.952  18.470   4.685
 3858SSM    C2A44056  16.024  18.593   5.005
 3858SSM    C3A44057  15.993  18.979   5.353
 3858SSM    C4A44058  16.074  19.361   5.742
 3858SSM    C1B44059  15.495  18.551   4.821
 3858SSM    C2B44060  15.239  18.683   5.255
 3858SSM    C3B44061  14.897  18.993   5.513
 3858SSM    C4B44062  14.770  19.295   5.875
 3859SSM    NC344063  13.242  20.258   3.155
 3859SSM    PO444064  12.950  20.047   3.321
 3859SSM    OH144065  12.588  20.109   3.470
 3859SSM    AM244066  12.697  19.904   3.678
 3859SSM    T1A44067  12.374  20.235   3.714
 3859SSM    C2A44068  12.229  20.311   4.102
 3859SSM    C3A44069  12.069  20.332   4.561
 3859SSM    C4A44070  12.330  20.058   4.863
 3859SSM    C1B44071  12.516  19.792   4.016
 3859SSM    C2B44072  12.413  19.767   4.494
 3859SSM    C3B44073  12.093  19.501   4.743
 3859SSM    C4B44074  11.642  19.451   4.955
 3860SSM    NC344075   2.269  13.956   4.405
 3860SSM    PO444076   2.089  14.084   4.047
 3860SSM    OH144077   1.780  13.853   4.214
 3860SSM    AM244078   1.672  14.098   4.325
 3860SSM    T1A44079   1.803  13.664   4.499
 3860SSM    C2A44080   1.961  13.626   4.872
 3860SSM    C3A44081   1.957  13.502   5.341
 3860SSM    C4A44082   1.762  13.104   5.639
 3860SSM    C1B44083   1.387  14.216   4.595
 3860SSM    C2B44084   1.105  14.360   5.040
 3860SSM    C3B44085   1.005  14.146   5.426
 3860SSM    C4B44086   1.220  13.913   5.770
 3861SSM    NC344087   8.727  17.347   3.334
 3861SSM    PO444088   8.842  16.939   3.356
 3861SSM    OH144089   8.844  16.678   3.599
 3861SSM    AM244090   9.061  16.806   3.759
 3861SSM    T1A44091   8.699  16.488   3.886
 3861SSM    C2A44092   8.523  16.459   4.262
 3861SSM    C3A44093   8.395  16.363   4.716
 3861SSM    C4A44094   8.126  16.532   4.993
 3861SSM    C1B44095   9.153  16.966   4.113
 3861SSM    C2B44096   9.027  17.134   4.644
 3861SSM    C3B44097   8.750  17.313   4.970
 3861SSM    C4B44098   8.696  17.681   5.272
 3862SSM    NC344099  11.650  35.797   2.839
 3862SSM    PO444100  12.067  35.699   2.813
 3862SSM    OH144101  12.030  35.750   3.093
 3862SSM    AM244102  12.089  36.049   3.157
 3862SSM    T1A44103  12.114  35.729   3.448
 3862SSM    C2A44104  12.091  35.899   3.798
 3862SSM    C3A44105  12.221  35.825   4.252
 3862SSM    C4A44106  12.588  35.882   4.522
 3862SSM    C1B44107  12.216  36.238   3.412
 3862SSM    C2B44108  12.440  36.278   3.804
 3862SSM    C3B44109  12.726  36.033   4.064
 3862SSM    C4B44110  12.927  35.636   4.222
 3863SSM    NC344111  23.382   8.115   3.624
 3863SSM    PO444112  23.097   8.250   3.337
 3863SSM    OH144113  22.850   8.296   3.572
 3863SSM    AM244114  23.026   8.419   3.796
 3863SSM    T1A44115  22.608   8.379   3.844
 3863SSM    C2A44116  22.449   8.314   4.200
 3863SSM    C3A44117  22.380   8.072   4.622
 3863SSM    C4A44118  22.431   7.758   5.008
 3863SSM    C1B44119  22.926   8.406   4.231
 3863SSM    C2B44120  23.028   8.284   4.750
 3863SSM    C3B44121  23.270   8.285   5.193
 3863SSM    C4B44122  23.485   7.972   5.464
 3864SSM    NC344123  32.979  18.991   3.673
 3864SSM    PO444124  33.365  19.110   3.729
 3864SSM    OH144125  33.445  19.309   4.052
 3864SSM    AM244126  33.181  19.153   4.134
 3864SSM    T1A44127  33.384  19.548   4.297
 3864SSM    C2A44128  33.528  19.727   4.675
 3864SSM    C3A44129  33.638  19.594   5.145
 3864SSM    C4A44130  33.727  19.429   5.572
 3864SSM    C1B44131  33.046  18.769   4.244
 3864SSM    C2B44132  32.872  18.405   4.560
 3864SSM    C3B44133  33.017  18.174   4.974
 3864SSM    C4B44134  33.210  17.920   5.434
 3865SSM    NC344135  14.307  29.572   3.531
 3865SSM    PO444136  13.931  29.649   3.436
 3865SSM    OH144137  13.712  29.681   3.729
 3865SSM    AM244138  13.924  29.502   3.860
 3865SSM    T1A44139  13.500  29.640   4.002
 3865SSM    C2A44140  13.313  29.373   4.306
 3865SSM    C3A44141  13.261  29.253   4.776
 3865SSM    C4A44142  12.960  28.952   4.997
 3865SSM    C1B44143  13.761  29.268   4.139
 3865SSM    C2B44144  13.750  29.170   4.637
 3865SSM    C3B44145  13.732  29.222   5.117
 3865SSM    C4B44146  13.699  28.953   5.566
 3866SSM    NC344147   6.018   6.319   3.385
 3866SSM    PO444148   6.038   6.749   3.378
 3866SSM    OH144149   6.301   6.821   3.607
 3866SSM    AM244150   6.135   6.996   3.785
 3866SSM    T1A44151   6.523   6.799   3.882
 3866SSM    C2A44152   6.607   6.880   4.281
 3866SSM    C3A44153   6.643   6.947   4.747
 3866SSM    C4A44154   6.879   7.048   5.171
 3866SSM    C1B44155   6.153   7.100   4.127
 3866SSM    C2B44156   6.276   7.233   4.633
 3866SSM    C3B44157   6.285   7.404   5.072
 3866SSM    C4B44158   6.166   7.677   5.418
 3867SSM    NC344159  18.238   3.726   3.545
 3867SSM    PO444160  17.888   3.847   3.738
 3867SSM    OH144161  17.830   4.057   4.018
 3867SSM    AM244162  18.056   4.265   3.962
 3867SSM    T1A44163  17.756   4.266   4.293
 3867SSM    C2A44164  17.869   4.577   4.581
 3867SSM    C3A44165  18.269   4.882   4.561
 3867SSM    C4A44166  18.651   4.728   4.334
 3867SSM    C1B44167  18.243   4.457   4.248
 3867SSM    C2B44168  18.317   4.400   4.703
 3867SSM    C3B44169  18.451   4.466   5.192
 3867SSM    C4B44170  18.574   4.326   5.643
 3868SSM    NC344171   5.855  18.343   2.993
 3868SSM    PO444172   5.776  18.016   3.066
 3868SSM    OH144173   5.714  18.021   3.438
 3868SSM    AM244174   5.501  18.226   3.412
 3868SSM    T1A44175   5.637  17.988   3.759
 3868SSM    C2A44176   5.539  18.172   4.097
 3868SSM    C3A44177   5.537  18.128   4.545
 3868SSM    C4A44178   5.736  17.994   4.959
 3868SSM    C1B44179   5.375  18.540   3.588
 3868SSM    C2B44180   5.352  18.698   4.096
 3868SSM    C3B44181   5.183  18.788   4.581
 3868SSM    C4B44182   5.060  18.841   5.041
 3869SSM    NC344183  19.868  35.389   3.392
 3869SSM    PO444184  19.845  35.766   3.508
 3869SSM    OH144185  19.792  36.044   3.744
 3869SSM    AM244186  19.526  35.981   3.846
 3869SSM    T1A44187  19.914  36.151   4.054
 3869SSM    C2A44188  20.186  36.198   4.397
 3869SSM    C3A44189  20.262  36.550   4.763
 3869SSM    C4A44190  20.542  36.818   5.044
 3869SSM    C1B44191  19.539  35.779   4.165
 3869SSM    C2B44192  19.414  35.786   4.662
 3869SSM    C3B44193  19.271  35.832   5.139
 3869SSM    C4B44194  18.942  36.010   5.515
 3870SSM    NC344195  25.692  21.558   3.496
 3870SSM    PO444196  25.899  21.542   3.133
 3870SSM    OH144197  26.210  21.482   3.360
 3870SSM    AM244198  26.094  21.254   3.464
 3870SSM    T1A44199  26.404  21.601   3.634
 3870SSM    C2A44200  26.598  21.723   3.974
 3870SSM    C3A44201  26.605  21.641   4.464
 3870SSM    C4A44202  26.693  21.759   4.887
 3870SSM    C1B44203  26.066  21.321   3.805
 3870SSM    C2B44204  26.131  21.421   4.344
 3870SSM    C3B44205  26.274  21.400   4.761
 3870SSM    C4B44206  26.460  21.580   5.227
 3871SSM    NC344207  19.295  13.877   2.889
 3871SSM    PO444208  19.347  14.000   3.272
 3871SSM    OH144209  19.383  13.801   3.577
 3871SSM    AM244210  19.611  13.943   3.670
 3871SSM    T1A44211  19.202  13.819   3.855
 3871SSM    C2A44212  18.948  14.004   4.108
 3871SSM    C3A44213  18.473  13.945   4.183
 3871SSM    C4A44214  18.139  14.064   4.613
 3871SSM    C1B44215  19.643  14.127   4.016
 3871SSM    C2B44216  19.484  14.380   4.388
 3871SSM    C3B44217  19.189  14.539   4.794
 3871SSM    C4B44218  18.912  14.587   5.240
 3872SSM    NC344219  27.862  22.226   3.126
 3872SSM    PO444220  28.098  22.400   3.388
 3872SSM    OH144221  27.921  22.494   3.699
 3872SSM    AM244222  28.132  22.495   3.878
 3872SSM    T1A44223  27.733  22.456   3.970
 3872SSM    C2A44224  27.759  22.579   4.320
 3872SSM    C3A44225  27.586  22.801   4.731
 3872SSM    C4A44226  27.400  23.044   5.123
 3872SSM    C1B44227  28.307  22.564   4.261
 3872SSM    C2B44228  28.527  22.746   4.736
 3872SSM    C3B44229  28.620  23.081   5.089
 3872SSM    C4B44230  28.901  23.465   5.238
 3873SSM    NC344231  13.116  26.150   3.105
 3873SSM    PO444232  12.741  26.253   3.172
 3873SSM    OH144233  12.473  26.287   3.415
 3873SSM    AM244234  12.663  26.350   3.620
 3873SSM    T1A44235  12.362  26.100   3.656
 3873SSM    C2A44236  12.282  26.017   4.041
 3873SSM    C3A44237  12.185  26.095   4.480
 3873SSM    C4A44238  12.068  26.213   4.917
 3873SSM    C1B44239  12.562  26.438   4.029
 3873SSM    C2B44240  12.299  26.641   4.431
 3873SSM    C3B44241  12.200  26.928   4.742
 3873SSM    C4B44242  11.867  26.906   5.098
 3874SSM    NC344243  18.521  17.617   3.753
 3874SSM    PO444244  18.885  17.524   3.646
 3874SSM    OH144245  18.912  17.368   3.975
 3874SSM    AM244246  18.763  17.542   4.134
 3874SSM    T1A44247  19.007  17.221   4.266
 3874SSM    C2A44248  19.067  17.345   4.659
 3874SSM    C3A44249  18.799  17.447   4.973
 3874SSM    C4A44250  18.489  17.531   5.329
 3874SSM    C1B44251  18.525  17.608   4.470
 3874SSM    C2B44252  18.414  17.737   4.912
 3874SSM    C3B44253  18.083  18.018   5.246
 3874SSM    C4B44254  17.879  17.910   5.716
 3875SSM    NC344255  20.767  19.214   3.564
 3875SSM    PO444256  20.432  19.421   3.543
 3875SSM    OH144257  20.477  19.693   3.779
 3875SSM    AM244258  20.758  19.599   3.851
 3875SSM    T1A44259  20.444  19.786   4.122
 3875SSM    C2A44260  20.423  19.996   4.470
 3875SSM    C3A44261  20.307  20.326   4.695
 3875SSM    C4A44262  20.146  20.670   4.948
 3875SSM    C1B44263  20.821  19.317   4.098
 3875SSM    C2B44264  20.744  18.951   4.507
 3875SSM    C3B44265  20.647  18.941   4.976
 3875SSM    C4B44266  20.530  19.200   5.394
 3876SSM    NC344267  20.716  21.361   3.697
 3876SSM    PO444268  20.464  21.625   3.817
 3876SSM    OH144269  20.371  21.636   4.168
 3876SSM    AM244270  20.242  21.889   4.118
 3876SSM    T1A44271  20.344  21.710   4.520
 3876SSM    C2A44272  20.655  21.805   4.753
 3876SSM    C3A44273  20.874  22.016   5.134
 3876SSM    C4A44274  20.870  22.327   5.541
 3876SSM    C1B44275  20.303  22.137   4.391
 3876SSM    C2B44276  20.230  22.561   4.710
 3876SSM    C3B44277  20.309  22.853   5.087
 3876SSM    C4B44278  20.364  23.035   5.482
 3877SSM    NC344279   0.692  11.224   3.719
 3877SSM    PO444280   0.467  10.997   3.446
 3877SSM    OH144281   0.180  10.842   3.608
 3877SSM    AM244282   0.342  10.829   3.879
 3877SSM    T1A44283  -0.054  10.669   3.815
 3877SSM    C2A44284  -0.190  10.531   4.131
 3877SSM    C3A44285  -0.318  10.551   4.633
 3877SSM    C4A44286  -0.378  10.602   5.151
 3877SSM    C1B44287   0.468  10.942   4.221
 3877SSM    C2B44288   0.417  11.100   4.735
 3877SSM    C3B44289   0.508  10.940   5.179
 3877SSM    C4B44290   0.402  10.639   5.512
 3878SSM    NC344291   3.580  18.636   3.275
 3878SSM    PO444292   3.244  18.745   3.457
 3878SSM    OH144293   3.302  18.591   3.828
 3878SSM    AM244294   3.376  18.837   3.931
 3878SSM    T1A44295   3.405  18.431   4.129
 3878SSM    C2A44296   3.543  18.343   4.443
 3878SSM    C3A44297   3.957  18.180   4.539
 3878SSM    C4A44298   4.273  18.504   4.793
 3878SSM    C1B44299   3.181  19.068   4.184
 3878SSM    C2B44300   2.864  18.897   4.534
 3878SSM    C3B44301   2.824  18.949   5.041
 3878SSM    C4B44302   2.904  18.677   5.469
 3879SSM    NC344303   1.488   2.133   3.301
 3879SSM    PO444304   1.109   2.130   3.319
 3879SSM    OH144305   0.991   2.383   3.631
 3879SSM    AM244306   1.287   2.373   3.721
 3879SSM    T1A44307   1.017   2.673   3.812
 3879SSM    C2A44308   1.191   2.637   4.192
 3879SSM    C3A44309   1.084   2.756   4.621
 3879SSM    C4A44310   0.950   2.806   5.040
 3879SSM    C1B44311   1.497   2.289   4.034
 3879SSM    C2B44312   1.479   2.411   4.536
 3879SSM    C3B44313   1.413   2.591   4.988
 3879SSM    C4B44314   1.364   2.718   5.423
 3880SSM    NC344315  18.771  21.122   3.513
 3880SSM    PO444316  18.444  20.946   3.542
 3880SSM    OH144317  18.435  20.846   3.878
 3880SSM    AM244318  18.134  20.924   3.860
 3880SSM    T1A44319  18.365  20.893   4.189
 3880SSM    C2A44320  18.262  20.863   4.550
 3880SSM    C3A44321  18.089  20.846   4.996
 3880SSM    C4A44322  17.924  20.792   5.439
 3880SSM    C1B44323  17.910  21.071   4.170
 3880SSM    C2B44324  17.770  21.053   4.680
 3880SSM    C3B44325  17.613  20.789   5.056
 3880SSM    C4B44326  17.466  20.795   5.496
 3881SSM    NC344327  29.477  32.265   2.711
 3881SSM    PO444328  29.311  32.574   2.864
 3881SSM    OH144329  29.241  32.519   3.204
 3881SSM    AM244330  29.460  32.302   3.205
 3881SSM    T1A44331  29.160  32.472   3.535
 3881SSM    C2A44332  29.034  32.535   3.864
 3881SSM    C3A44333  28.745  32.617   4.249
 3881SSM    C4A44334  28.571  32.851   4.704
 3881SSM    C1B44335  29.763  32.189   3.379
 3881SSM    C2B44336  29.949  31.910   3.718
 3881SSM    C3B44337  29.962  31.731   4.124
 3881SSM    C4B44338  29.913  31.789   4.591
 3882SSM    NC344339   5.860  14.764   3.558
 3882SSM    PO444340   5.641  15.126   3.573
 3882SSM    OH144341   5.547  15.040   3.906
 3882SSM    AM244342   5.817  14.973   4.012
 3882SSM    T1A44343   5.470  14.913   4.219
 3882SSM    C2A44344   5.500  14.820   4.577
 3882SSM    C3A44345   5.479  14.735   5.073
 3882SSM    C4A44346   5.402  14.483   5.497
 3882SSM    C1B44347   5.858  15.095   4.321
 3882SSM    C2B44348   5.677  15.360   4.813
 3882SSM    C3B44349   5.566  15.583   5.188
 3882SSM    C4B44350   5.530  15.929   5.539
 3883SSM    NC344351  17.470   1.145   2.950
 3883SSM    PO444352  17.839   1.215   3.165
 3883SSM    OH144353  17.673   1.322   3.511
 3883SSM    AM244354  17.644   1.049   3.593
 3883SSM    T1A44355  17.767   1.418   3.838
 3883SSM    C2A44356  17.739   1.350   4.200
 3883SSM    C3A44357  18.003   1.518   4.537
 3883SSM    C4A44358  17.977   1.878   4.929
 3883SSM    C1B44359  17.637   0.899   3.908
 3883SSM    C2B44360  17.573   0.958   4.456
 3883SSM    C3B44361  17.588   0.877   4.914
 3883SSM    C4B44362  17.478   0.953   5.395
 3884SSM    NC344363  13.704  11.313   3.770
 3884SSM    PO444364  13.751  10.985   3.533
 3884SSM    OH144365  13.782  10.790   3.816
 3884SSM    AM244366  13.587  10.926   4.002
 3884SSM    T1A44367  13.893  10.686   4.130
 3884SSM    C2A44368  14.184  10.897   4.345
 3884SSM    C3A44369  14.362  11.118   4.709
 3884SSM    C4A44370  14.703  11.330   5.000
 3884SSM    C1B44371  13.512  11.184   4.292
 3884SSM    C2B44372  13.467  11.581   4.616
 3884SSM    C3B44373  13.419  11.819   5.077
 3884SSM    C4B44374  13.482  12.033   5.513
 3885SSM    NC344375  16.125   3.863   3.129
 3885SSM    PO444376  15.820   3.924   3.377
 3885SSM    OH144377  15.701   3.759   3.651
 3885SSM    AM244378  15.707   3.991   3.852
 3885SSM    T1A44379  15.576   3.478   3.841
 3885SSM    C2A44380  15.611   3.322   4.208
 3885SSM    C3A44381  15.596   3.192   4.682
 3885SSM    C4A44382  15.763   2.848   5.051
 3885SSM    C1B44383  15.883   4.153   4.117
 3885SSM    C2B44384  16.042   4.163   4.554
 3885SSM    C3B44385  15.925   4.098   4.993
 3885SSM    C4B44386  15.997   4.123   5.452
 3886SSM    NC344387  29.115  11.754   3.302
 3886SSM    PO444388  29.149  12.074   3.550
 3886SSM    OH144389  29.383  11.904   3.822
 3886SSM    AM244390  29.178  11.998   4.025
 3886SSM    T1A44391  29.559  11.831   4.122
 3886SSM    C2A44392  29.515  11.586   4.405
 3886SSM    C3A44393  29.785  11.335   4.720
 3886SSM    C4A44394  30.003  11.025   5.083
 3886SSM    C1B44395  29.123  11.891   4.382
 3886SSM    C2B44396  29.221  11.606   4.822
 3886SSM    C3B44397  29.445  11.422   5.197
 3886SSM    C4B44398  29.221  11.407   5.653
 3887SSM    NC344399  15.537   8.054   2.951
 3887SSM    PO444400  15.619   7.817   3.253
 3887SSM    OH144401  15.493   7.696   3.541
 3887SSM    AM244402  15.641   7.877   3.728
 3887SSM    T1A44403  15.388   7.532   3.813
 3887SSM    C2A44404  15.427   7.471   4.169
 3887SSM    C3A44405  15.558   7.258   4.517
 3887SSM    C4A44406  15.324   7.038   4.831
 3887SSM    C1B44407  15.698   7.931   4.100
 3887SSM    C2B44408  15.614   7.795   4.531
 3887SSM    C3B44409  15.608   7.549   4.942
 3887SSM    C4B44410  15.461   7.237   5.278
 3888SSM    NC344411  11.446   8.980   3.469
 3888SSM    PO444412  11.139   8.973   3.702
 3888SSM    OH144413  11.160   9.318   3.875
 3888SSM    AM244414  11.237   9.181   4.128
 3888SSM    T1A44415  11.004   9.582   4.088
 3888SSM    C2A44416  10.989   9.951   4.177
 3888SSM    C3A44417  11.216  10.404   4.120
 3888SSM    C4A44418  11.131  10.889   3.827
 3888SSM    C1B44419  11.255   9.106   4.523
 3888SSM    C2B44420  11.227   9.031   5.018
 3888SSM    C3B44421  11.278   8.622   5.282
 3888SSM    C4B44422  11.566   8.297   5.556
 3889SSM    NC344423  11.301   6.088   3.221
 3889SSM    PO444424  11.609   5.842   3.107
 3889SSM    OH144425  11.494   5.614   3.398
 3889SSM    AM244426  11.439   5.836   3.590
 3889SSM    T1A44427  11.343   5.439   3.635
 3889SSM    C2A44428  11.107   5.182   3.884
 3889SSM    C3A44429  10.828   5.090   4.302
 3889SSM    C4A44430  10.671   5.228   4.732
 3889SSM    C1B44431  11.533   6.144   3.836
 3889SSM    C2B44432  11.460   6.207   4.326
 3889SSM    C3B44433  11.331   6.156   4.736
 3889SSM    C4B44434  11.158   6.347   5.161
 3890SSM    NC344435   8.627  27.693   3.016
 3890SSM    PO444436   8.940  27.565   2.887
 3890SSM    OH144437   9.106  27.617   3.203
 3890SSM    AM244438   8.932  27.841   3.326
 3890SSM    T1A44439   9.120  27.501   3.524
 3890SSM    C2A44440   9.024  27.391   3.898
 3890SSM    C3A44441   8.903  27.374   4.382
 3890SSM    C4A44442   8.592  27.274   4.753
 3890SSM    C1B44443   8.880  28.025   3.655
 3890SSM    C2B44444   8.627  28.187   4.062
 3890SSM    C3B44445   8.303  28.171   4.412
 3890SSM    C4B44446   8.159  28.109   4.877
 3891SSM    NC344447  24.157  34.962   3.276
 3891SSM    PO444448  23.861  34.707   3.210
 3891SSM    OH144449  23.784  34.759   3.568
 3891SSM    AM244450  23.817  34.462   3.628
 3891SSM    T1A44451  23.575  34.739   3.843
 3891SSM    C2A44452  23.466  34.719   4.220
 3891SSM    C3A44453  23.358  34.738   4.733
 3891SSM    C4A44454  23.484  34.576   5.208
 3891SSM    C1B44455  23.935  34.199   3.914
 3891SSM    C2B44456  23.962  34.041   4.356
 3891SSM    C3B44457  24.065  33.912   4.812
 3891SSM    C4B44458  24.105  33.837   5.267
 3892SSM    NC344459   9.237   2.574   2.646
 3892SSM    PO444460   8.996   2.628   2.953
 3892SSM    OH144461   8.875   2.816   3.238
 3892SSM    AM244462   9.118   2.967   3.343
 3892SSM    T1A44463   8.757   2.942   3.531
 3892SSM    C2A44464   8.925   2.903   3.888
 3892SSM    C3A44465   8.884   2.807   4.343
 3892SSM    C4A44466   8.991   2.581   4.750
 3892SSM    C1B44467   9.118   3.272   3.606
 3892SSM    C2B44468   9.146   3.556   3.961
 3892SSM    C3B44469   9.446   3.917   4.230
 3892SSM    C4B44470   9.765   4.093   4.584
 3893SSM    NC344471  13.468   6.958   3.284
 3893SSM    PO444472  13.147   6.775   3.424
 3893SSM    OH144473  13.303   6.485   3.654
 3893SSM    AM244474  13.226   6.723   3.867
 3893SSM    T1A44475  13.465   6.382   3.907
 3893SSM    C2A44476  13.579   6.449   4.276
 3893SSM    C3A44477  13.602   6.571   4.762
 3893SSM    C4A44478  13.978   6.603   5.108
 3893SSM    C1B44479  13.185   6.816   4.258
 3893SSM    C2B44480  13.201   6.899   4.766
 3893SSM    C3B44481  13.254   6.869   5.187
 3893SSM    C4B44482  13.285   6.836   5.675
 3894SSM    NC344483  14.583  11.775   3.503
 3894SSM    PO444484  14.461  11.443   3.650
 3894SSM    OH144485  14.519  11.543   3.980
 3894SSM    AM244486  14.218  11.546   4.063
 3894SSM    T1A44487  14.555  11.700   4.271
 3894SSM    C2A44488  14.328  11.666   4.584
 3894SSM    C3A44489  14.173  11.450   4.975
 3894SSM    C4A44490  13.984  11.646   5.449
 3894SSM    C1B44491  13.993  11.387   4.342
 3894SSM    C2B44492  13.888  11.074   4.707
 3894SSM    C3B44493  14.048  10.830   5.130
 3894SSM    C4B44494  14.167  10.814   5.610
 3895SSM    NC344495  27.514  14.317   3.277
 3895SSM    PO444496  27.853  14.358   3.445
 3895SSM    OH144497  28.065  14.203   3.706
 3895SSM    AM244498  27.859  14.145   3.910
 3895SSM    T1A44499  28.201  14.458   3.875
 3895SSM    C2A44500  28.237  14.578   4.243
 3895SSM    C3A44501  28.195  14.833   4.628
 3895SSM    C4A44502  28.219  15.037   5.054
 3895SSM    C1B44503  27.743  14.250   4.302
 3895SSM    C2B44504  27.546  14.279   4.849
 3895SSM    C3B44505  27.513  14.267   5.330
 3895SSM    C4B44506  27.685  14.182   5.814
 3896SSM    NC344507  10.738  18.802   3.093
 3896SSM    PO444508  10.562  18.411   3.005
 3896SSM    OH144509  10.265  18.423   3.306
 3896SSM    AM244510  10.473  18.587   3.438
 3896SSM    T1A44511  10.116  18.388   3.610
 3896SSM    C2A44512  10.047  18.547   4.052
 3896SSM    C3A44513   9.871  18.832   4.483
 3896SSM    C4A44514   9.768  18.862   4.973
 3896SSM    C1B44515  10.458  18.713   3.779
 3896SSM    C2B44516  10.354  18.899   4.282
 3896SSM    C3B44517  10.279  19.078   4.783
 3896SSM    C4B44518   9.979  19.405   4.891
 3897SSM    NC344519   6.187  20.251   3.274
 3897SSM    PO444520   6.518  20.437   3.161
 3897SSM    OH144521   6.616  20.684   3.412
 3897SSM    AM244522   6.398  20.603   3.631
 3897SSM    T1A44523   6.790  20.824   3.641
 3897SSM    C2A44524   6.786  20.871   4.041
 3897SSM    C3A44525   7.060  20.698   4.295
 3897SSM    C4A44526   7.331  20.584   4.689
 3897SSM    C1B44527   6.324  20.657   3.988
 3897SSM    C2B44528   6.462  20.689   4.441
 3897SSM    C3B44529   6.772  20.614   4.851
 3897SSM    C4B44530   7.000  20.604   5.308
 3898SSM    NC344531   8.495  32.681   2.844
 3898SSM    PO444532   8.378  32.474   3.165
 3898SSM    OH144533   8.463  32.579   3.506
 3898SSM    AM244534   8.173  32.699   3.537
 3898SSM    T1A44535   8.417  32.606   3.848
 3898SSM    C2A44536   8.268  32.720   4.210
 3898SSM    C3A44537   8.221  32.699   4.725
 3898SSM    C4A44538   8.174  32.604   5.222
 3898SSM    C1B44539   7.968  32.747   3.822
 3898SSM    C2B44540   7.779  32.815   4.358
 3898SSM    C3B44541   7.520  33.005   4.715
 3898SSM    C4B44542   7.267  33.458   4.757
 3899SSM    NC344543   1.851  21.614   3.556
 3899SSM    PO444544   2.243  21.622   3.618
 3899SSM    OH144545   2.276  21.497   3.964
 3899SSM    AM244546   1.978  21.518   4.001
 3899SSM    T1A44547   2.249  21.344   4.285
 3899SSM    C2A44548   2.177  21.226   4.589
 3899SSM    C3A44549   2.009  21.080   5.020
 3899SSM    C4A44550   1.899  20.810   5.412
 3899SSM    C1B44551   1.851  21.580   4.327
 3899SSM    C2B44552   1.835  21.496   4.851
 3899SSM    C3B44553   1.893  21.475   5.289
 3899SSM    C4B44554   2.018  21.408   5.749
 3900SSM    NC344555  11.377  16.478   3.377
 3900SSM    PO444556  11.317  16.093   3.455
 3900SSM    OH144557  11.369  16.249   3.825
 3900SSM    AM244558  11.273  15.968   3.925
 3900SSM    T1A44559  11.297  16.322   4.137
 3900SSM    C2A44560  11.338  16.261   4.531
 3900SSM    C3A44561  11.457  16.235   4.993
 3900SSM    C4A44562  11.714  16.296   5.393
 3900SSM    C1B44563  11.072  15.958   4.247
 3900SSM    C2B44564  11.062  15.939   4.755
 3900SSM    C3B44565  11.181  15.827   5.269
 3900SSM    C4B44566  11.066  15.495   5.671
 3901SSM    NC344567  11.805   6.790   3.101
 3901SSM    PO444568  12.120   6.945   3.033
 3901SSM    OH144569  12.277   7.128   3.306
 3901SSM    AM244570  12.048   7.061   3.493
 3901SSM    T1A44571  12.457   7.175   3.589
 3901SSM    C2A44572  12.318   7.128   3.960
 3901SSM    C3A44573  12.003   7.544   4.165
 3901SSM    C4A44574  11.732   7.880   4.430
 3901SSM    C1B44575  11.797   7.184   3.818
 3901SSM    C2B44576  11.845   7.044   4.326
 3901SSM    C3B44577  11.814   6.961   4.817
 3901SSM    C4B44578  11.854   6.847   5.334
 3902SSM    NC344579  15.938   0.062   2.960
 3902SSM    PO444580  16.225  -0.095   3.180
 3902SSM    OH144581  16.345   0.090   3.463
 3902SSM    AM244582  16.024   0.097   3.587
 3902SSM    T1A44583  16.447  -0.003   3.767
 3902SSM    C2A44584  16.499  -0.129   4.126
 3902SSM    C3A44585  16.539  -0.255   4.549
 3902SSM    C4A44586  16.456  -0.427   4.996
 3902SSM    C1B44587  15.902  -0.052   3.817
 3902SSM    C2B44588  16.049  -0.210   4.262
 3902SSM    C3B44589  16.078  -0.450   4.625
 3902SSM    C4B44590  16.095  -0.806   4.987
 3903SSM    NC344591  26.034   9.076   3.517
 3903SSM    PO444592  26.431   9.020   3.600
 3903SSM    OH144593  26.492   9.113   3.964
 3903SSM    AM244594  26.721   8.897   3.969
 3903SSM    T1A44595  26.638   9.292   4.210
 3903SSM    C2A44596  26.506   9.418   4.610
 3903SSM    C3A44597  26.441   9.424   5.128
 3903SSM    C4A44598  26.671   9.311   5.556
 3903SSM    C1B44599  26.919   8.687   4.197
 3903SSM    C2B44600  27.125   8.546   4.697
 3903SSM    C3B44601  27.337   8.357   5.041
 3903SSM    C4B44602  27.563   8.158   5.465
 3904SSM    NC344603  29.641   0.888   3.040
 3904SSM    PO444604  29.991   0.711   2.889
 3904SSM    OH144605  30.318   0.834   3.018
 3904SSM    AM244606  30.198   1.007   3.254
 3904SSM    T1A44607  30.613   0.903   3.207
 3904SSM    C2A44608  30.825   1.024   3.525
 3904SSM    C3A44609  31.056   0.914   4.001
 3904SSM    C4A44610  31.450   0.885   4.345
 3904SSM    C1B44611  30.313   1.187   3.565
 3904SSM    C2B44612  30.709   1.342   3.878
 3904SSM    C3B44613  30.781   1.571   4.321
 3904SSM    C4B44614  30.775   1.768   4.768
 3905SSM    NC344615  27.595   7.609   2.886
 3905SSM    PO444616  27.742   7.281   3.000
 3905SSM    OH144617  27.649   7.286   3.381
 3905SSM    AM244618  27.809   7.520   3.419
 3905SSM    T1A44619  27.632   7.240   3.711
 3905SSM    C2A44620  27.784   7.183   4.053
 3905SSM    C3A44621  27.778   7.357   4.408
 3905SSM    C4A44622  27.932   7.265   4.846
 3905SSM    C1B44623  27.785   7.714   3.746
 3905SSM    C2B44624  27.618   8.022   4.147
 3905SSM    C3B44625  27.924   7.954   4.422
 3905SSM    C4B44626  28.196   7.749   4.691
 3906SSM    NC344627   2.859   9.476   4.011
 3906SSM    PO444628   3.253   9.369   3.920
 3906SSM    OH144629   3.368   9.501   4.248
 3906SSM    AM244630   3.276   9.246   4.380
 3906SSM    T1A44631   3.441   9.717   4.499
 3906SSM    C2A44632   3.331   9.880   4.844
 3906SSM    C3A44633   3.277  10.084   5.297
 3906SSM    C4A44634   3.480  10.486   5.477
 3906SSM    C1B44635   3.361   8.994   4.667
 3906SSM    C2B44636   3.601   8.747   5.076
 3906SSM    C3B44637   3.842   8.541   5.408
 3906SSM    C4B44638   4.303   8.403   5.326
 3907SSM    NC344639  26.356  16.176   3.529
 3907SSM    PO444640  26.621  16.324   3.353
 3907SSM    OH144641  26.835  16.347   3.631
 3907SSM    AM244642  26.625  16.510   3.802
 3907SSM    T1A44643  27.030  16.285   3.897
 3907SSM    C2A44644  26.978  16.317   4.286
 3907SSM    C3A44645  26.932  16.233   4.785
 3907SSM    C4A44646  26.869  16.227   5.235
 3907SSM    C1B44647  26.542  16.586   4.065
 3907SSM    C2B44648  26.566  16.666   4.585
 3907SSM    C3B44649  26.582  16.656   5.070
 3907SSM    C4B44650  26.854  16.816   5.386
 3908SSM    NC344651  14.002  24.003   3.138
 3908SSM    PO444652  14.124  23.627   3.135
 3908SSM    OH144653  14.298  23.687   3.463
 3908SSM    AM244654  14.161  23.497   3.647
 3908SSM    T1A44655  14.330  23.859   3.753
 3908SSM    C2A44656  14.263  23.817   4.101
 3908SSM    C3A44657  14.067  23.603   4.459
 3908SSM    C4A44658  14.055  23.335   4.890
 3908SSM    C1B44659  14.097  23.366   3.905
 3908SSM    C2B44660  13.932  23.154   4.347
 3908SSM    C3B44661  13.865  22.900   4.690
 3908SSM    C4B44662  13.844  22.654   5.121
 3909SSM    NC344663  26.346  22.569   3.283
 3909SSM    PO444664  26.000  22.556   3.100
 3909SSM    OH144665  25.716  22.572   3.387
 3909SSM    AM244666  25.935  22.689   3.550
 3909SSM    T1A44667  25.536  22.469   3.645
 3909SSM    C2A44668  25.428  22.413   3.997
 3909SSM    C3A44669  25.379  22.400   4.486
 3909SSM    C4A44670  25.283  22.409   4.944
 3909SSM    C1B44671  26.059  23.021   3.774
 3909SSM    C2B44672  25.988  23.162   4.274
 3909SSM    C3B44673  25.702  23.173   4.626
 3909SSM    C4B44674  25.601  23.276   5.112
 3910SSM    NC344675   6.928   4.274   3.466
 3910SSM    PO444676   6.988   4.367   3.823
 3910SSM    OH144677   6.803   4.341   4.137
 3910SSM    AM244678   7.028   4.357   4.312
 3910SSM    T1A44679   6.615   4.245   4.427
 3910SSM    C2A44680   6.380   4.116   4.734
 3910SSM    C3A44681   6.498   3.690   4.937
 3910SSM    C4A44682   6.533   3.261   5.027
 3910SSM    C1B44683   7.263   4.176   4.522
 3910SSM    C2B44684   7.450   4.094   5.014
 3910SSM    C3B44685   7.465   4.210   5.438
 3910SSM    C4B44686   7.440   4.437   5.882
 3911SSM    NC344687  34.534  30.083   3.707
 3911SSM    PO444688  34.253  29.837   3.667
 3911SSM    OH144689  34.218  29.849   4.044
 3911SSM    AM244690  34.510  29.831   4.095
 3911SSM    T1A44691  34.205  29.774   4.381
 3911SSM    C2A44692  34.136  29.986   4.724
 3911SSM    C3A44693  34.034  29.962   5.184
 3911SSM    C4A44694  33.747  29.727   5.527
 3911SSM    C1B44695  34.796  29.613   4.260
 3911SSM    C2B44696  35.104  29.407   4.615
 3911SSM    C3B44697  35.389  29.052   4.778
 3911SSM    C4B44698  35.817  29.071   4.880
 3912SSM    NC344699  11.697  25.573   2.715
 3912SSM    PO444700  12.079  25.639   2.886
 3912SSM    OH144701  11.984  25.764   3.196
 3912SSM    AM244702  12.074  25.510   3.357
 3912SSM    T1A44703  11.987  25.922   3.510
 3912SSM    C2A44704  11.852  25.849   3.902
 3912SSM    C3A44705  11.827  25.812   4.325
 3912SSM    C4A44706  11.925  25.765   4.796
 3912SSM    C1B44707  12.034  25.170   3.548
 3912SSM    C2B44708  11.563  24.973   3.801
 3912SSM    C3B44709  11.348  24.894   4.221
 3912SSM    C4B44710  11.002  24.695   4.512
 3913SSM    NC344711  18.328  19.075   3.783
 3913SSM    PO444712  18.420  19.470   3.731
 3913SSM    OH144713  18.548  19.602   4.037
 3913SSM    AM244714  18.270  19.553   4.186
 3913SSM    T1A44715  18.669  19.560   4.374
 3913SSM    C2A44716  18.561  19.498   4.740
 3913SSM    C3A44717  18.707  19.600   5.207
 3913SSM    C4A44718  18.815  19.513   5.637
 3913SSM    C1B44719  18.119  19.741   4.506
 3913SSM    C2B44720  18.224  19.749   5.033
 3913SSM    C3B44721  18.366  19.392   5.451
 3913SSM    C4B44722  18.383  19.227   5.889
 3914SSM    NC344723  30.759  35.294   2.863
 3914SSM    PO444724  30.572  35.012   3.060
 3914SSM    OH144725  30.519  34.951   3.423
 3914SSM    AM244726  30.627  35.220   3.524
 3914SSM    T1A44727  30.293  34.948   3.669
 3914SSM    C2A44728  30.217  35.111   4.064
 3914SSM    C3A44729  30.164  35.023   4.518
 3914SSM    C4A44730  30.050  34.894   4.973
 3914SSM    C1B44731  30.541  35.552   3.673
 3914SSM    C2B44732  30.620  35.765   4.146
 3914SSM    C3B44733  30.656  35.913   4.626
 3914SSM    C4B44734  30.812  35.795   5.117
 3915SSM    NC344735  18.759  10.963   4.166
 3915SSM    PO444736  18.562  11.321   4.010
 3915SSM    OH144737  18.734  11.414   4.315
 3915SSM    AM244738  18.537  11.313   4.505
 3915SSM    T1A44739  18.877  11.639   4.558
 3915SSM    C2A44740  19.054  11.749   4.909
 3915SSM    C3A44741  19.184  12.125   5.256
 3915SSM    C4A44742  19.456  12.449   5.538
 3915SSM    C1B44743  18.396  11.282   4.830
 3915SSM    C2B44744  18.096  11.077   5.188
 3915SSM    C3B44745  17.795  10.797   5.419
 3915SSM    C4B44746  17.361  10.483   5.419
 3916SSM    NC344747  35.535  25.288   3.145
 3916SSM    PO444748  35.835  25.129   3.379
 3916SSM    OH144749  36.008  24.917   3.720
 3916SSM    AM244750  35.744  24.878   3.803
 3916SSM    T1A44751  36.186  24.932   4.006
 3916SSM    C2A44752  36.394  24.681   4.264
 3916SSM    C3A44753  36.283  24.527   4.710
 3916SSM    C4A44754  36.408  24.272   5.136
 3916SSM    C1B44755  35.373  25.013   3.915
 3916SSM    C2B44756  35.091  25.255   4.301
 3916SSM    C3B44757  34.894  25.356   4.628
 3916SSM    C4B44758  34.549  25.576   4.898
 3917SSM    NC344759   2.056  20.502   4.087
 3917SSM    PO444760   1.802  20.705   3.876
 3917SSM    OH144761   1.511  20.897   4.009
 3917SSM    AM244762   1.579  20.798   4.289
 3917SSM    T1A44763   1.278  21.120   4.094
 3917SSM    C2A44764   1.076  21.118   4.413
 3917SSM    C3A44765   0.850  21.418   4.681
 3917SSM    C4A44766   0.570  21.684   5.021
 3917SSM    C1B44767   1.845  20.802   4.581
 3917SSM    C2B44768   1.756  20.511   4.912
 3917SSM    C3B44769   1.762  20.284   5.317
 3917SSM    C4B44770   2.182  20.333   5.625
 3918SSM    NC344771  30.045   2.823   3.584
 3918SSM    PO444772  29.768   3.094   3.639
 3918SSM    OH144773  29.710   3.089   4.018
 3918SSM    AM244774  29.442   3.180   3.986
 3918SSM    T1A44775  29.629   3.087   4.347
 3918SSM    C2A44776  29.487   3.030   4.721
 3918SSM    C3A44777  29.413   3.011   5.142
 3918SSM    C4A44778  29.278   3.039   5.610
 3918SSM    C1B44779  29.202   3.292   4.343
 3918SSM    C2B44780  29.163   3.389   4.873
 3918SSM    C3B44781  28.897   3.602   5.219
 3918SSM    C4B44782  28.409   3.690   5.415
 3919SSM    NC344783  23.916  20.407   3.142
 3919SSM    PO444784  24.190  20.318   3.405
 3919SSM    OH144785  24.211  20.163   3.715
 3919SSM    AM244786  24.111  20.435   3.835
 3919SSM    T1A44787  24.357  20.120   4.027
 3919SSM    C2A44788  24.517  19.926   4.342
 3919SSM    C3A44789  24.447  19.745   4.778
 3919SSM    C4A44790  24.500  19.739   5.286
 3919SSM    C1B44791  24.017  20.679   4.212
 3919SSM    C2B44792  23.924  20.728   4.669
 3919SSM    C3B44793  24.007  20.934   5.124
 3919SSM    C4B44794  24.266  20.735   5.517
 3920SSM    NC344795  32.094   7.141   3.300
 3920SSM    PO444796  32.471   7.282   3.228
 3920SSM    OH144797  32.614   7.464   3.527
 3920SSM    AM244798  32.352   7.490   3.670
 3920SSM    T1A44799  32.750   7.459   3.845
 3920SSM    C2A44800  32.651   7.538   4.217
 3920SSM    C3A44801  32.632   7.656   4.662
 3920SSM    C4A44802  32.369   7.851   5.086
 3920SSM    C1B44803  32.257   7.374   4.004
 3920SSM    C2B44804  32.172   7.469   4.472
 3920SSM    C3B44805  31.746   7.660   4.639
 3920SSM    C4B44806  31.532   7.481   5.003
 3921SSM    NC344807   2.203  19.365   2.990
 3921SSM    PO444808   2.009  19.356   3.299
 3921SSM    OH144809   2.199  19.470   3.620
 3921SSM    AM244810   1.972  19.402   3.840
 3921SSM    T1A44811   2.338  19.665   3.865
 3921SSM    C2A44812   2.373  19.700   4.314
 3921SSM    C3A44813   2.197  19.549   4.803
 3921SSM    C4A44814   1.931  19.369   5.190
 3921SSM    C1B44815   1.827  19.309   4.147
 3921SSM    C2B44816   1.813  19.143   4.653
 3921SSM    C3B44817   1.428  19.182   4.944
 3921SSM    C4B44818   1.002  19.227   5.223
 3922SSM    NC344819  14.126   3.839   3.002
 3922SSM    PO444820  13.775   3.838   3.118
 3922SSM    OH144821  13.835   3.608   3.410
 3922SSM    AM244822  13.535   3.559   3.454
 3922SSM    T1A44823  13.876   3.484   3.747
 3922SSM    C2A44824  13.820   3.519   4.147
 3922SSM    C3A44825  13.893   3.506   4.624
 3922SSM    C4A44826  13.793   3.329   5.094
 3922SSM    C1B44827  13.360   3.465   3.760
 3922SSM    C2B44828  13.290   3.279   4.181
 3922SSM    C3B44829  13.428   3.183   4.608
 3922SSM    C4B44830  13.307   3.181   5.107
 3923SSM    NC344831   9.117  30.158   3.111
 3923SSM    PO444832   9.482  30.345   3.122
 3923SSM    OH144833   9.570  30.650   3.404
 3923SSM    AM244834   9.513  30.390   3.580
 3923SSM    T1A44835   9.624  30.845   3.692
 3923SSM    C2A44836   9.435  30.864   4.018
 3923SSM    C3A44837   9.347  30.898   4.441
 3923SSM    C4A44838   9.114  30.859   4.903
 3923SSM    C1B44839   9.376  30.346   3.851
 3923SSM    C2B44840   9.422  30.427   4.285
 3923SSM    C3B44841   9.286  30.329   4.774
 3923SSM    C4B44842   9.014  30.154   5.185
 3924SSM    NC344843  22.043  33.766   3.673
 3924SSM    PO444844  21.979  33.388   3.778
 3924SSM    OH144845  22.091  33.188   4.058
 3924SSM    AM244846  22.084  33.447   4.218
 3924SSM    T1A44847  21.983  33.028   4.332
 3924SSM    C2A44848  21.774  32.914   4.647
 3924SSM    C3A44849  21.346  32.922   4.917
 3924SSM    C4A44850  20.949  33.251   5.020
 3924SSM    C1B44851  22.249  33.634   4.509
 3924SSM    C2B44852  22.255  33.739   4.997
 3924SSM    C3B44853  22.200  33.677   5.532
 3924SSM    C4B44854  22.042  33.532   5.927
 3925SSM    NC344855   1.994  28.687   3.456
 3925SSM    PO444856   1.957  28.344   3.244
 3925SSM    OH144857   1.989  28.239   3.595
 3925SSM    AM244858   2.243  28.072   3.585
 3925SSM    T1A44859   1.963  28.198   3.944
 3925SSM    C2A44860   1.996  28.207   4.297
 3925SSM    C3A44861   2.162  28.347   4.784
 3925SSM    C4A44862   2.394  28.540   5.197
 3925SSM    C1B44863   2.383  27.976   3.963
 3925SSM    C2B44864   2.481  28.346   4.343
 3925SSM    C3B44865   2.519  28.734   4.458
 3925SSM    C4B44866   2.439  29.206   4.606
 3926SSM    NC344867   3.479  16.956   3.794
 3926SSM    PO444868   3.730  17.257   3.768
 3926SSM    OH144869   3.922  17.519   3.932
 3926SSM    AM244870   4.156  17.375   4.031
 3926SSM    T1A44871   4.090  17.807   4.033
 3926SSM    C2A44872   4.329  17.928   4.309
 3926SSM    C3A44873   4.505  18.040   4.761
 3926SSM    C4A44874   4.688  18.383   5.068
 3926SSM    C1B44875   4.359  17.424   4.288
 3926SSM    C2B44876   4.650  17.396   4.763
 3926SSM    C3B44877   4.593  17.336   5.268
 3926SSM    C4B44878   4.706  16.992   5.619
 3927SSM    NC344879  12.590  30.023   3.318
 3927SSM    PO444880  12.271  30.209   3.146
 3927SSM    OH144881  12.140  30.465   3.408
 3927SSM    AM244882  12.382  30.347   3.565
 3927SSM    T1A44883  12.067  30.678   3.667
 3927SSM    C2A44884  12.061  30.907   3.980
 3927SSM    C3A44885  11.882  31.065   4.405
 3927SSM    C4A44886  11.598  31.075   4.827
 3927SSM    C1B44887  12.363  30.347   3.947
 3927SSM    C2B44888  12.099  30.229   4.340
 3927SSM    C3B44889  11.945  30.008   4.751
 3927SSM    C4B44890  12.042  29.974   5.201
 3928SSM    NC344891  27.548  21.580   3.308
 3928SSM    PO444892  27.869  21.743   3.085
 3928SSM    OH144893  28.023  21.847   3.420
 3928SSM    AM244894  27.784  22.002   3.545
 3928SSM    T1A44895  28.111  21.904   3.751
 3928SSM    C2A44896  27.985  22.096   4.119
 3928SSM    C3A44897  27.917  22.101   4.569
 3928SSM    C4A44898  27.792  21.891   4.994
 3928SSM    C1B44899  27.635  21.991   3.791
 3928SSM    C2B44900  27.536  22.022   4.273
 3928SSM    C3B44901  27.404  22.218   4.634
 3928SSM    C4B44902  27.577  22.353   5.057
 3929SSM    NC344903  35.907  13.051   3.985
 3929SSM    PO444904  35.980  12.714   3.734
 3929SSM    OH144905  35.934  12.369   3.842
 3929SSM    AM244906  36.201  12.337   3.977
 3929SSM    T1A44907  35.805  12.112   4.034
 3929SSM    C2A44908  35.927  12.013   4.378
 3929SSM    C3A44909  36.181  12.130   4.766
 3929SSM    C4A44910  36.075  12.282   5.179
 3929SSM    C1B44911  36.444  12.369   4.330
 3929SSM    C2B44912  36.551  12.456   4.832
 3929SSM    C3B44913  36.583  12.497   5.300
 3929SSM    C4B44914  36.683  12.796   5.651
 3930SSM    NC344915  10.516  17.402   2.874
 3930SSM    PO444916  10.270  17.349   3.189
 3930SSM    OH144917  10.477  17.610   3.337
 3930SSM    AM244918  10.665  17.418   3.490
 3930SSM    T1A44919  10.596  17.881   3.487
 3930SSM    C2A44920  10.494  18.116   3.809
 3930SSM    C3A44921  10.490  18.396   4.226
 3930SSM    C4A44922  10.368  18.519   4.703
 3930SSM    C1B44923  10.630  17.416   3.895
 3930SSM    C2B44924  10.682  17.599   4.340
 3930SSM    C3B44925  10.676  17.645   4.887
 3930SSM    C4B44926  10.649  17.845   5.356
 3931SSM    NC344927  16.563  10.381   3.613
 3931SSM    PO444928  16.701  10.012   3.611
 3931SSM    OH144929  16.419   9.831   3.746
 3931SSM    AM244930  16.321  10.047   3.958
 3931SSM    T1A44931  16.301   9.577   3.944
 3931SSM    C2A44932  16.275   9.359   4.277
 3931SSM    C3A44933  16.116   9.434   4.737
 3931SSM    C4A44934  15.987   9.543   5.156
 3931SSM    C1B44935  16.315  10.283   4.276
 3931SSM    C2B44936  16.269  10.313   4.817
 3931SSM    C3B44937  16.341  10.394   5.319
 3931SSM    C4B44938  16.208  10.300   5.743
 3932SSM    NC344939   6.504  29.432   3.171
 3932SSM    PO444940   6.395  29.802   3.264
 3932SSM    OH144941   6.446  30.066   3.548
 3932SSM    AM244942   6.231  29.940   3.702
 3932SSM    T1A44943   6.455  30.228   3.858
 3932SSM    C2A44944   6.227  30.201   4.178
 3932SSM    C3A44945   6.159  29.907   4.624
 3932SSM    C4A44946   6.267  29.535   4.903
 3932SSM    C1B44947   5.914  30.044   3.829
 3932SSM    C2B44948   5.790  30.107   4.327
 3932SSM    C3B44949   5.869  30.217   4.820
 3932SSM    C4B44950   6.247  30.187   5.137
 3933SSM    NC344951  32.924   8.157   2.696
 3933SSM    PO444952  33.091   8.042   3.026
 3933SSM    OH144953  33.042   8.110   3.390
 3933SSM    AM244954  32.789   7.972   3.468
 3933SSM    T1A44955  33.051   8.212   3.692
 3933SSM    C2A44956  32.855   8.351   4.041
 3933SSM    C3A44957  32.735   8.229   4.512
 3933SSM    C4A44958  32.664   8.290   4.994
 3933SSM    C1B44959  32.564   7.875   3.765
 3933SSM    C2B44960  32.405   7.988   4.209
 3933SSM    C3B44961  32.222   8.188   4.683
 3933SSM    C4B44962  32.185   8.387   5.092
 3934SSM    NC344963  26.510  13.798   3.416
 3934SSM    PO444964  26.743  14.087   3.201
 3934SSM    OH144965  27.026  14.160   3.367
 3934SSM    AM244966  27.037  14.441   3.492
 3934SSM    T1A44967  26.980  14.026   3.688
 3934SSM    C2A44968  26.677  13.983   3.926
 3934SSM    C3A44969  26.633  13.850   4.418
 3934SSM    C4A44970  26.570  13.648   4.881
 3934SSM    C1B44971  26.924  14.622   3.818
 3934SSM    C2B44972  26.828  14.776   4.274
 3934SSM    C3B44973  26.821  14.788   4.700
 3934SSM    C4B44974  26.706  14.801   5.136
 3935SSM    NC344975  29.923   0.123   2.849
 3935SSM    PO444976  30.152  -0.019   3.124
 3935SSM    OH144977  30.122   0.168   3.413
 3935SSM    AM244978  30.214   0.447   3.347
 3935SSM    T1A44979  30.016   0.280   3.698
 3935SSM    C2A44980  29.788   0.262   4.066
 3935SSM    C3A44981  29.666   0.303   4.527
 3935SSM    C4A44982  29.591   0.332   5.053
 3935SSM    C1B44983  30.430   0.713   3.579
 3935SSM    C2B44984  30.473   0.915   3.988
 3935SSM    C3B44985  30.689   0.814   4.376
 3935SSM    C4B44986  30.650   0.608   4.816
 3936SSM    NC344987  12.238  26.445   2.687
 3936SSM    PO444988  12.185  26.745   2.946
 3936SSM    OH144989  11.953  26.672   3.227
 3936SSM    AM244990  12.148  26.618   3.439
 3936SSM    T1A44991  11.725  26.762   3.473
 3936SSM    C2A44992  11.629  26.789   3.888
 3936SSM    C3A44993  11.453  26.760   4.264
 3936SSM    C4A44994  11.288  26.787   4.756
 3936SSM    C1B44995  12.068  26.417   3.792
 3936SSM    C2B44996  11.915  26.392   4.224
 3936SSM    C3B44997  11.797  26.568   4.657
 3936SSM    C4B44998  11.581  26.484   5.131
 3937SSM    NC344999  23.315   6.944   3.302
 3937SSM    PO445000  22.994   7.185   3.357
 3937SSM    OH145001  23.037   7.431   3.621
 3937SSM    AM245002  22.782   7.416   3.763
 3937SSM    T1A45003  23.199   7.475   3.924
 3937SSM    C2A45004  23.290   7.437   4.308
 3937SSM    C3A45005  23.306   7.329   4.749
 3937SSM    C4A45006  23.205   7.116   5.211
 3937SSM    C1B45007  22.786   7.333   4.083
 3937SSM    C2B45008  22.760   7.335   4.665
 3937SSM    C3B45009  22.772   7.389   5.099
 3937SSM    C4B45010  22.833   7.377   5.633
 3938SSM    NC345011   8.990  31.648   3.120
 3938SSM    PO445012   8.828  31.840   3.407
 3938SSM    OH145013   8.807  32.185   3.451
 3938SSM    AM245014   8.585  32.149   3.646
 3938SSM    T1A45015   8.935  32.466   3.632
 3938SSM    C2A45016   9.027  32.475   3.977
 3938SSM    C3A45017   9.014  32.425   4.408
 3938SSM    C4A45018   8.987  32.196   4.806
 3938SSM    C1B45019   8.586  32.287   4.069
 3938SSM    C2B45020   8.557  32.352   4.560
 3938SSM    C3B45021   8.625  32.445   5.016
 3938SSM    C4B45022   8.536  32.224   5.470
 3939SSM    NC345023  14.068  30.460   3.455
 3939SSM    PO445024  14.209  30.445   3.829
 3939SSM    OH145025  14.124  30.103   3.933
 3939SSM    AM245026  14.243  30.140   4.214
 3939SSM    T1A45027  13.940  29.857   4.089
 3939SSM    C2A45028  13.828  29.680   4.424
 3939SSM    C3A45029  13.972  29.585   4.837
 3939SSM    C4A45030  14.127  29.604   5.283
 3939SSM    C1B45031  14.376  30.300   4.587
 3939SSM    C2B45032  14.373  30.411   5.115
 3939SSM    C3B45033  14.323  30.355   5.656
 3939SSM    C4B45034  14.235  30.548   6.167
 3940SSM    NC345035  25.122  10.891   3.800
 3940SSM    PO445036  25.109  10.549   3.613
 3940SSM    OH145037  25.288  10.453   3.871
 3940SSM    AM245038  25.115  10.258   4.017
 3940SSM    T1A45039  25.552  10.364   4.052
 3940SSM    C2A45040  25.681  10.090   4.322
 3940SSM    C3A45041  25.845   9.836   4.674
 3940SSM    C4A45042  25.888   9.681   5.147
 3940SSM    C1B45043  25.213  10.030   4.277
 3940SSM    C2B45044  25.063   9.936   4.773
 3940SSM    C3B45045  24.930   9.842   5.196
 3940SSM    C4B45046  24.961   9.914   5.657
 3941SSM    NC345047  35.115  27.747   3.239
 3941SSM    PO445048  35.033  27.364   3.393
 3941SSM    OH145049  34.800  27.297   3.608
 3941SSM    AM245050  34.873  27.449   3.846
 3941SSM    T1A45051  34.569  27.169   3.842
 3941SSM    C2A45052  34.614  27.127   4.224
 3941SSM    C3A45053  34.770  26.982   4.662
 3941SSM    C4A45054  34.817  26.922   5.129
 3941SSM    C1B45055  35.065  27.447   4.199
 3941SSM    C2B45056  35.075  27.433   4.722
 3941SSM    C3B45057  35.140  27.279   5.119
 3941SSM    C4B45058  35.257  26.858   5.396
 3942SSM    NC345059  26.654  33.979   2.984
 3942SSM    PO445060  26.421  34.328   3.084
 3942SSM    OH145061  26.403  34.466   3.453
 3942SSM    AM245062  26.702  34.428   3.494
 3942SSM    T1A45063  26.390  34.379   3.776
 3942SSM    C2A45064  26.200  34.325   4.138
 3942SSM    C3A45065  26.254  34.153   4.583
 3942SSM    C4A45066  26.271  34.073   5.084
 3942SSM    C1B45067  26.914  34.404   3.764
 3942SSM    C2B45068  27.022  34.507   4.270
 3942SSM    C3B45069  27.113  34.557   4.795
 3942SSM    C4B45070  26.988  34.743   5.226
 3943SSM    NC345071   2.555  14.235   3.903
 3943SSM    PO445072   2.533  14.607   4.030
 3943SSM    OH145073   2.316  14.427   4.280
 3943SSM    AM245074   2.252  14.724   4.362
 3943SSM    T1A45075   2.249  14.373   4.613
 3943SSM    C2A45076   2.237  14.411   5.017
 3943SSM    C3A45077   2.123  14.453   5.462
 3943SSM    C4A45078   2.209  14.482   5.942
 3943SSM    C1B45079   2.035  14.832   4.728
 3943SSM    C2B45080   1.913  14.814   5.221
 3943SSM    C3B45081   1.763  14.764   5.699
 3943SSM    C4B45082   1.728  14.586   6.128
 3944SSM    NC345083   7.423  33.135   2.946
 3944SSM    PO445084   7.361  32.759   3.091
 3944SSM    OH145085   7.229  32.500   3.348
 3944SSM    AM245086   6.959  32.620   3.385
 3944SSM    T1A45087   7.198  32.349   3.661
 3944SSM    C2A45088   7.156  32.290   4.057
 3944SSM    C3A45089   7.016  32.322   4.427
 3944SSM    C4A45090   6.991  32.048   4.880
 3944SSM    C1B45091   6.750  32.867   3.669
 3944SSM    C2B45092   6.615  33.182   4.058
 3944SSM    C3B45093   6.525  33.131   4.542
 3944SSM    C4B45094   6.709  33.374   4.915
 3945SSM    NC345095  22.122  26.916   3.185
 3945SSM    PO445096  22.385  26.640   3.360
 3945SSM    OH145097  22.462  26.494   3.691
 3945SSM    AM245098  22.741  26.596   3.712
 3945SSM    T1A45099  22.444  26.348   4.004
 3945SSM    C2A45100  22.433  26.257   4.404
 3945SSM    C3A45101  22.408  26.328   4.882
 3945SSM    C4A45102  22.473  26.342   5.322
 3945SSM    C1B45103  23.045  26.760   3.834
 3945SSM    C2B45104  23.350  26.724   4.203
 3945SSM    C3B45105  23.473  26.577   4.642
 3945SSM    C4B45106  23.605  26.756   5.097
 3946SSM    NC345107   8.281  13.243   3.240
 3946SSM    PO445108   8.514  13.467   3.447
 3946SSM    OH145109   8.550  13.192   3.694
 3946SSM    AM245110   8.829  13.294   3.731
 3946SSM    T1A45111   8.589  13.089   4.035
 3946SSM    C2A45112   8.666  12.797   4.340
 3946SSM    C3A45113   8.676  12.448   4.718
 3946SSM    C4A45114   8.538  12.356   5.127
 3946SSM    C1B45115   9.033  13.238   4.069
 3946SSM    C2B45116   9.160  12.947   4.456
 3946SSM    C3B45117   9.246  12.709   4.868
 3946SSM    C4B45118   9.130  12.720   5.365
 3947SSM    NC345119  29.153  21.006   2.726
 3947SSM    PO445120  28.889  21.111   2.978
 3947SSM    OH145121  28.935  21.184   3.316
 3947SSM    AM245122  29.055  20.942   3.411
 3947SSM    T1A45123  28.836  21.224   3.628
 3947SSM    C2A45124  28.751  21.290   4.005
 3947SSM    C3A45125  28.495  21.199   4.384
 3947SSM    C4A45126  28.265  21.216   4.796
 3947SSM    C1B45127  29.248  20.634   3.706
 3947SSM    C2B45128  29.433  20.276   4.023
 3947SSM    C3B45129  29.541  20.170   4.512
 3947SSM    C4B45130  29.670  20.195   5.047
 3948SSM    NC345131  29.655   9.197   3.502
 3948SSM    PO445132  29.642   8.778   3.369
 3948SSM    OH145133  29.634   8.528   3.647
 3948SSM    AM245134  29.677   8.717   3.876
 3948SSM    T1A45135  29.398   8.376   3.829
 3948SSM    C2A45136  29.380   8.084   4.140
 3948SSM    C3A45137  29.119   7.780   4.469
 3948SSM    C4A45138  29.028   7.786   4.882
 3948SSM    C1B45139  29.630   8.685   4.263
 3948SSM    C2B45140  29.557   8.541   4.718
 3948SSM    C3B45141  29.214   8.662   4.991
 3948SSM    C4B45142  28.706   8.562   5.087
 3949SSM    NC345143  28.174  20.146   2.843
 3949SSM    PO445144  28.040  20.373   3.189
 3949SSM    OH145145  28.286  20.505   3.361
 3949SSM    AM245146  28.399  20.321   3.567
 3949SSM    T1A45147  28.431  20.740   3.561
 3949SSM    C2A45148  28.723  20.808   3.840
 3949SSM    C3A45149  29.056  20.599   4.201
 3949SSM    C4A45150  29.142  20.460   4.605
 3949SSM    C1B45151  28.466  20.208   3.915
 3949SSM    C2B45152  28.589  20.247   4.404
 3949SSM    C3B45153  28.726  20.227   4.850
 3949SSM    C4B45154  28.817  19.950   5.191
 3950SSM    NC345155   9.701  22.362   2.714
 3950SSM    PO445156   9.993  22.100   2.739
 3950SSM    OH145157  10.107  22.076   3.060
 3950SSM    AM245158   9.848  22.130   3.211
 3950SSM    T1A45159  10.193  21.933   3.363
 3950SSM    C2A45160  10.257  21.752   3.691
 3950SSM    C3A45161  10.217  21.701   4.181
 3950SSM    C4A45162  10.240  21.670   4.737
 3950SSM    C1B45163   9.818  22.057   3.597
 3950SSM    C2B45164   9.801  21.907   4.064
 3950SSM    C3B45165   9.784  21.733   4.505
 3950SSM    C4B45166   9.809  21.442   4.871
 3951SSM    NC345167   6.039   2.060   3.210
 3951SSM    PO445168   5.795   2.243   3.433
 3951SSM    OH145169   5.884   2.446   3.760
 3951SSM    AM245170   5.608   2.372   3.881
 3951SSM    T1A45171   5.989   2.318   4.094
 3951SSM    C2A45172   6.054   2.259   4.513
 3951SSM    C3A45173   6.252   2.186   4.946
 3951SSM    C4A45174   6.604   2.290   5.262
 3951SSM    C1B45175   5.367   2.161   4.177
 3951SSM    C2B45176   4.905   2.177   4.108
 3951SSM    C3B45177   4.523   2.321   3.904
 3951SSM    C4B45178   4.254   2.699   3.663
 3952SSM    NC345179  12.069   2.040   3.237
 3952SSM    PO445180  11.836   1.969   2.913
 3952SSM    OH145181  11.639   1.826   3.238
 3952SSM    AM245182  11.802   1.571   3.208
 3952SSM    T1A45183  11.749   1.788   3.559
 3952SSM    C2A45184  11.693   1.915   3.908
 3952SSM    C3A45185  11.402   2.191   4.150
 3952SSM    C4A45186  11.151   2.617   4.128
 3952SSM    C1B45187  12.131   1.507   3.455
 3952SSM    C2B45188  12.436   1.508   3.914
 3952SSM    C3B45189  12.855   1.465   4.083
 3952SSM    C4B45190  13.258   1.360   4.376
 3953SSM    NC345191  10.022  33.632   2.824
 3953SSM    PO445192  10.223  33.380   3.024
 3953SSM    OH145193  10.455  33.544   3.285
 3953SSM    AM245194  10.315  33.344   3.459
 3953SSM    T1A45195  10.629  33.719   3.554
 3953SSM    C2A45196  10.955  33.898   3.635
 3953SSM    C3A45197  11.277  34.195   3.741
 3953SSM    C4A45198  11.674  34.494   3.780
 3953SSM    C1B45199  10.143  33.320   3.838
 3953SSM    C2B45200   9.997  33.324   4.348
 3953SSM    C3B45201  10.155  33.399   4.814
 3953SSM    C4B45202  10.128  33.809   4.909
 3954SSM    NC345203  27.431   5.691   3.260
 3954SSM    PO445204  27.271   5.313   3.165
 3954SSM    OH145205  27.253   5.293   3.547
 3954SSM    AM245206  27.054   5.520   3.508
 3954SSM    T1A45207  27.284   5.342   3.899
 3954SSM    C2A45208  27.466   5.526   4.205
 3954SSM    C3A45209  27.343   5.798   4.582
 3954SSM    C4A45210  27.090   6.035   5.000
 3954SSM    C1B45211  26.843   5.788   3.646
 3954SSM    C2B45212  26.517   6.047   3.983
 3954SSM    C3B45213  26.380   6.158   4.411
 3954SSM    C4B45214  26.061   6.297   4.797
 3955SSM    NC345215  13.758  13.378   3.677
 3955SSM    PO445216  14.077  13.178   3.421
 3955SSM    OH145217  14.237  12.958   3.700
 3955SSM    AM245218  13.940  12.973   3.785
 3955SSM    T1A45219  14.282  12.850   4.019
 3955SSM    C2A45220  14.269  12.908   4.402
 3955SSM    C3A45221  14.170  12.953   4.846
 3955SSM    C4A45222  14.032  13.126   5.265
 3955SSM    C1B45223  13.573  12.833   3.902
 3955SSM    C2B45224  13.325  12.948   4.337
 3955SSM    C3B45225  13.192  12.905   4.785
 3955SSM    C4B45226  12.951  12.922   5.240
 3956SSM    NC345227   5.742  22.906   3.118
 3956SSM    PO445228   5.771  22.920   3.491
 3956SSM    OH145229   5.970  22.967   3.807
 3956SSM    AM245230   5.800  22.761   3.949
 3956SSM    T1A45231   6.220  23.027   4.052
 3956SSM    C2A45232   6.284  23.123   4.417
 3956SSM    C3A45233   6.387  22.770   4.740
 3956SSM    C4A45234   6.743  22.699   5.066
 3956SSM    C1B45235   5.569  22.603   4.166
 3956SSM    C2B45236   5.146  22.370   4.475
 3956SSM    C3B45237   5.014  22.221   4.873
 3956SSM    C4B45238   4.680  22.152   5.237
 3957SSM    NC345239  13.037  28.834   3.127
 3957SSM    PO445240  13.145  29.149   3.319
 3957SSM    OH145241  13.166  29.042   3.681
 3957SSM    AM245242  12.940  28.834   3.659
 3957SSM    T1A45243  13.121  29.049   4.012
 3957SSM    C2A45244  12.979  28.966   4.371
 3957SSM    C3A45245  12.624  28.766   4.650
 3957SSM    C4A45246  12.303  28.697   5.060
 3957SSM    C1B45247  12.899  28.612   4.022
 3957SSM    C2B45248  12.939  28.413   4.462
 3957SSM    C3B45249  12.784  28.384   4.923
 3957SSM    C4B45250  13.036  28.377   5.342
 3958SSM    NC345251  25.479  29.435   2.997
 3958SSM    PO445252  25.715  29.174   2.859
 3958SSM    OH145253  25.806  29.106   3.184
 3958SSM    AM245254  25.553  28.950   3.285
 3958SSM    T1A45255  25.890  29.193   3.490
 3958SSM    C2A45256  25.828  29.247   3.914
 3958SSM    C3A45257  25.810  29.318   4.339
 3958SSM    C4A45258  25.940  29.319   4.741
 3958SSM    C1B45259  25.402  28.782   3.611
 3958SSM    C2B45260  25.162  28.696   4.032
 3958SSM    C3B45261  24.712  28.559   4.077
 3958SSM    C4B45262  24.527  28.344   3.647
 3959SSM    NC345263  18.068  16.770   3.172
 3959SSM    PO445264  18.316  16.982   3.351
 3959SSM    OH145265  18.242  16.914   3.675
 3959SSM    AM245266  18.485  17.047   3.840
 3959SSM    T1A45267  18.043  16.992   3.953
 3959SSM    C2A45268  17.796  16.881   4.265
 3959SSM    C3A45269  17.883  17.123   4.678
 3959SSM    C4A45270  17.978  17.015   5.115
 3959SSM    C1B45271  18.568  17.152   4.181
 3959SSM    C2B45272  18.479  17.229   4.681
 3959SSM    C3B45273  18.501  17.042   5.133
 3959SSM    C4B45274  18.505  16.710   5.472
 3960SSM    NC345275  12.866  22.734   3.154
 3960SSM    PO445276  12.756  22.366   3.169
 3960SSM    OH145277  12.750  22.257   3.476
 3960SSM    AM245278  12.473  22.235   3.525
 3960SSM    T1A45279  12.851  22.269   3.789
 3960SSM    C2A45280  12.788  22.194   4.184
 3960SSM    C3A45281  12.693  22.157   4.564
 3960SSM    C4A45282  12.575  22.209   5.041
 3960SSM    C1B45283  12.147  22.504   3.650
 3960SSM    C2B45284  11.854  22.622   4.062
 3960SSM    C3B45285  11.816  22.493   4.569
 3960SSM    C4B45286  11.604  22.429   5.003
 3961SSM    NC345287  26.065  27.816   2.666
 3961SSM    PO445288  26.067  27.934   3.016
 3961SSM    OH145289  26.000  27.908   3.360
 3961SSM    AM245290  26.038  27.627   3.405
 3961SSM    T1A45291  26.179  27.907   3.648
 3961SSM    C2A45292  26.413  27.808   3.968
 3961SSM    C3A45293  26.792  27.719   4.264
 3961SSM    C4A45294  27.018  27.672   4.714
 3961SSM    C1B45295  26.083  27.403   3.719
 3961SSM    C2B45296  26.242  27.469   4.258
 3961SSM    C3B45297  26.094  27.373   4.706
 3961SSM    C4B45298  25.913  27.316   5.142
 3962SSM    NC345299   6.880   9.997   2.999
 3962SSM    PO445300   6.597  10.253   3.113
 3962SSM    OH145301   6.506  10.181   3.473
 3962SSM    AM245302   6.763  10.314   3.557
 3962SSM    T1A45303   6.488  10.062   3.808
 3962SSM    C2A45304   6.685  10.043   4.148
 3962SSM    C3A45305   6.753   9.899   4.598
 3962SSM    C4A45306   6.732   9.986   5.048
 3962SSM    C1B45307   6.940  10.393   3.862
 3962SSM    C2B45308   7.105  10.421   4.356
 3962SSM    C3B45309   7.355  10.360   4.769
 3962SSM    C4B45310   7.565  10.546   5.167
 3963SSM    NC345311  20.735  34.211   3.761
 3963SSM    PO445312  20.427  34.263   3.547
 3963SSM    OH145313  20.318  34.469   3.797
 3963SSM    AM245314  20.554  34.652   3.849
 3963SSM    T1A45315  20.154  34.713   4.000
 3963SSM    C2A45316  20.120  34.712   4.365
 3963SSM    C3A45317  19.913  34.609   4.831
 3963SSM    C4A45318  19.545  34.508   5.189
 3963SSM    C1B45319  20.909  34.680   4.085
 3963SSM    C2B45320  20.981  34.672   4.608
 3963SSM    C3B45321  20.862  34.706   5.098
 3963SSM    C4B45322  20.709  34.831   5.547
 3964SSM    NC345323  18.085   2.414   3.528
 3964SSM    PO445324  17.795   2.663   3.542
 3964SSM    OH145325  17.664   2.583   3.900
 3964SSM    AM245326  17.941   2.523   3.973
 3964SSM    T1A45327  17.540   2.496   4.198
 3964SSM    C2A45328  17.462   2.445   4.575
 3964SSM    C3A45329  17.607   2.288   4.987
 3964SSM    C4A45330  17.629   1.889   5.377
 3964SSM    C1B45331  18.004   2.221   4.115
 3964SSM    C2B45332  17.796   2.033   4.515
 3964SSM    C3B45333  17.557   1.691   4.736
 3964SSM    C4B45334  17.311   1.420   5.072
 3965SSM    NC345335  25.219   1.344   3.278
 3965SSM    PO445336  25.208   1.703   3.423
 3965SSM    OH145337  25.180   1.692   3.830
 3965SSM    AM245338  25.001   1.455   3.760
 3965SSM    T1A45339  25.269   1.548   4.137
 3965SSM    C2A45340  25.265   1.507   4.520
 3965SSM    C3A45341  25.505   1.487   4.906
 3965SSM    C4A45342  25.772   1.480   5.330
 3965SSM    C1B45343  24.834   1.161   4.052
 3965SSM    C2B45344  24.807   0.895   4.535
 3965SSM    C3B45345  24.779   0.869   5.011
 3965SSM    C4B45346  24.722   0.773   5.474
 3966SSM    NC345347  10.456  31.671   3.031
 3966SSM    PO445348  10.084  31.514   3.001
 3966SSM    OH145349   9.971  31.495   3.315
 3966SSM    AM245350  10.228  31.508   3.459
 3966SSM    T1A45351   9.752  31.468   3.560
 3966SSM    C2A45352   9.531  31.336   3.874
 3966SSM    C3A45353   9.451  31.451   4.337
 3966SSM    C4A45354   9.363  31.326   4.806
 3966SSM    C1B45355  10.270  31.490   3.841
 3966SSM    C2B45356  10.426  31.443   4.287
 3966SSM    C3B45357  10.412  31.288   4.730
 3966SSM    C4B45358  10.643  31.134   5.120
 3967SSM    NC345359  29.716  24.275   3.100
 3967SSM    PO445360  29.616  23.956   3.279
 3967SSM    OH145361  29.636  23.944   3.633
 3967SSM    AM245362  29.780  23.680   3.651
 3967SSM    T1A45363  29.488  23.917   3.961
 3967SSM    C2A45364  29.404  23.986   4.302
 3967SSM    C3A45365  29.186  24.049   4.670
 3967SSM    C4A45366  28.863  24.062   5.082
 3967SSM    C1B45367  30.048  23.449   3.681
 3967SSM    C2B45368  30.205  23.122   4.072
 3967SSM    C3B45369  30.385  22.843   4.437
 3967SSM    C4B45370  30.432  22.578   4.861
 3968SSM    NC345371   0.094  13.842   3.524
 3968SSM    PO445372  -0.128  14.139   3.501
 3968SSM    OH145373  -0.300  14.111   3.829
 3968SSM    AM245374  -0.015  14.033   3.977
 3968SSM    T1A45375  -0.421  14.026   4.149
 3968SSM    C2A45376  -0.583  14.188   4.509
 3968SSM    C3A45377  -0.872  14.327   4.883
 3968SSM    C4A45378  -1.090  14.449   5.321
 3968SSM    C1B45379   0.184  14.073   4.283
 3968SSM    C2B45380   0.243  14.024   4.752
 3968SSM    C3B45381   0.090  14.005   5.214
 3968SSM    C4B45382  -0.306  13.872   5.535
 3969SSM    NC345383  21.552  18.705   3.647
 3969SSM    PO445384  21.461  19.036   3.808
 3969SSM    OH145385  21.299  19.082   4.115
 3969SSM    AM245386  21.525  18.995   4.292
 3969SSM    T1A45387  21.154  19.133   4.413
 3969SSM    C2A45388  21.073  19.185   4.806
 3969SSM    C3A45389  21.096  19.187   5.319
 3969SSM    C4A45390  20.952  19.119   5.725
 3969SSM    C1B45391  21.606  18.924   4.671
 3969SSM    C2B45392  21.507  18.941   5.196
 3969SSM    C3B45393  21.471  19.161   5.659
 3969SSM    C4B45394  21.589  19.505   5.967
 3970SSM    NC345395  26.990  22.214   2.850
 3970SSM    PO445396  26.844  22.503   3.102
 3970SSM    OH145397  26.751  22.337   3.392
 3970SSM    AM245398  26.846  22.523   3.601
 3970SSM    T1A45399  26.526  22.255   3.620
 3970SSM    C2A45400  26.471  22.208   4.053
 3970SSM    C3A45401  26.380  22.307   4.516
 3970SSM    C4A45402  26.206  22.380   4.957
 3970SSM    C1B45403  26.866  22.733   3.928
 3970SSM    C2B45404  26.766  22.860   4.417
 3970SSM    C3B45405  26.636  22.762   4.809
 3970SSM    C4B45406  26.397  22.899   5.195
 3971SSM    NC345407  33.995  23.741   3.385
 3971SSM    PO445408  33.996  23.379   3.517
 3971SSM    OH145409  34.188  23.436   3.832
 3971SSM    AM245410  33.940  23.554   3.977
 3971SSM    T1A45411  34.322  23.515   4.152
 3971SSM    C2A45412  34.531  23.574   4.452
 3971SSM    C3A45413  34.623  23.472   4.881
 3971SSM    C4A45414  34.724  23.348   5.352
 3971SSM    C1B45415  33.883  23.740   4.326
 3971SSM    C2B45416  33.954  23.796   4.813
 3971SSM    C3B45417  33.813  23.766   5.279
 3971SSM    C4B45418  33.758  23.791   5.768
 3972SSM    NC345419   4.846   8.957   4.197
 3972SSM    PO445420   5.080   9.278   4.109
 3972SSM    OH145421   5.263   9.247   4.389
 3972SSM    AM245422   4.996   9.265   4.543
 3972SSM    T1A45423   5.436   9.306   4.673
 3972SSM    C2A45424   5.683   9.361   4.996
 3972SSM    C3A45425   5.812   9.192   5.421
 3972SSM    C4A45426   6.295   9.089   5.647
 3972SSM    C1B45427   4.848   9.135   4.849
 3972SSM    C2B45428   4.635   9.267   5.312
 3972SSM    C3B45429   4.515   9.605   5.598
 3972SSM    C4B45430   4.381  10.020   5.755
 3973SSM    NC345431  25.506   8.362   3.321
 3973SSM    PO445432  25.714   8.731   3.368
 3973SSM    OH145433  25.545   8.954   3.609
 3973SSM    AM245434  25.416   8.687   3.727
 3973SSM    T1A45435  25.453   9.093   3.916
 3973SSM    C2A45436  25.272   9.039   4.229
 3973SSM    C3A45437  25.237   9.037   4.712
 3973SSM    C4A45438  25.192   8.967   5.195
 3973SSM    C1B45439  25.391   8.502   4.081
 3973SSM    C2B45440  25.428   8.236   4.493
 3973SSM    C3B45441  25.457   8.059   4.913
 3973SSM    C4B45442  25.518   7.796   5.352
 3974SSM    NC345443   5.429  29.695   3.042
 3974SSM    PO445444   5.454  30.079   3.142
 3974SSM    OH145445   5.582  30.280   3.489
 3974SSM    AM245446   5.503  30.050   3.660
 3974SSM    T1A45447   5.493  30.449   3.772
 3974SSM    C2A45448   5.440  30.490   4.155
 3974SSM    C3A45449   5.444  30.521   4.634
 3974SSM    C4A45450   5.442  30.521   5.110
 3974SSM    C1B45451   5.401  29.980   4.003
 3974SSM    C2B45452   5.379  30.021   4.527
 3974SSM    C3B45453   5.307  29.997   5.033
 3974SSM    C4B45454   5.286  30.030   5.527
 3975SSM    NC345455   9.508  30.763   2.873
 3975SSM    PO445456   9.884  30.714   3.006
 3975SSM    OH145457   9.981  30.579   3.357
 3975SSM    AM245458  10.002  30.842   3.490
 3975SSM    T1A45459   9.965  30.429   3.644
 3975SSM    C2A45460   9.830  30.514   4.016
 3975SSM    C3A45461   9.815  30.730   4.422
 3975SSM    C4A45462   9.653  30.778   4.849
 3975SSM    C1B45463  10.096  31.016   3.824
 3975SSM    C2B45464  10.071  31.124   4.346
 3975SSM    C3B45465   9.803  31.286   4.690
 3975SSM    C4B45466   9.643  31.298   5.208
 3976SSM    NC345467   3.925  20.450   2.852
 3976SSM    PO445468   3.829  20.149   3.134
 3976SSM    OH145469   4.147  20.089   3.368
 3976SSM    AM245470   3.993  19.866   3.488
 3976SSM    T1A45471   4.261  20.152   3.673
 3976SSM    C2A45472   4.404  20.062   4.024
 3976SSM    C3A45473   4.591  20.010   4.509
 3976SSM    C4A45474   4.720  19.917   4.971
 3976SSM    C1B45475   4.026  19.694   3.843
 3976SSM    C2B45476   4.058  19.894   4.349
 3976SSM    C3B45477   3.899  19.915   4.763
 3976SSM    C4B45478   4.207  20.173   5.096
 3977SSM    NC345479  22.895   7.795   3.332
 3977SSM    PO445480  22.582   7.965   3.389
 3977SSM    OH145481  22.535   7.969   3.730
 3977SSM    AM245482  22.414   7.696   3.662
 3977SSM    T1A45483  22.594   7.933   4.094
 3977SSM    C2A45484  22.761   7.788   4.427
 3977SSM    C3A45485  22.980   7.768   4.859
 3977SSM    C4A45486  23.246   7.645   5.158
 3977SSM    C1B45487  22.341   7.319   3.765
 3977SSM    C2B45488  22.319   7.117   4.251
 3977SSM    C3B45489  22.374   6.830   4.612
 3977SSM    C4B45490  22.238   6.498   4.996
 3978SSM    NC345491   3.931  15.342   3.948
 3978SSM    PO445492   3.704  15.421   3.627
 3978SSM    OH145493   3.432  15.477   3.866
 3978SSM    AM245494   3.472  15.228   4.032
 3978SSM    T1A45495   3.359  15.629   4.194
 3978SSM    C2A45496   3.307  15.594   4.602
 3978SSM    C3A45497   3.120  15.800   5.029
 3978SSM    C4A45498   2.718  15.949   5.329
 3978SSM    C1B45499   3.618  15.291   4.407
 3978SSM    C2B45500   3.754  15.165   4.878
 3978SSM    C3B45501   3.725  15.119   5.324
 3978SSM    C4B45502   3.349  15.265   5.604
 3979SSM    NC345503  23.999  11.661   3.666
 3979SSM    PO445504  24.230  11.675   3.949
 3979SSM    OH145505  24.287  11.322   4.115
 3979SSM    AM245506  24.567  11.426   4.169
 3979SSM    T1A45507  24.237  11.244   4.434
 3979SSM    C2A45508  24.320  11.426   4.814
 3979SSM    C3A45509  24.235  11.340   5.262
 3979SSM    C4A45510  24.141  11.366   5.807
 3979SSM    C1B45511  24.774  11.352   4.503
 3979SSM    C2B45512  25.051  11.498   4.966
 3979SSM    C3B45513  25.358  11.641   5.300
 3979SSM    C4B45514  25.537  12.112   5.500
 3980SSM    NC345515  12.413  25.958   2.860
 3980SSM    PO445516  12.792  25.819   2.920
 3980SSM    OH145517  12.947  25.619   3.229
 3980SSM    AM245518  12.888  25.872   3.381
 3980SSM    T1A45519  12.856  25.435   3.501
 3980SSM    C2A45520  12.910  25.461   3.936
 3980SSM    C3A45521  12.929  25.431   4.418
 3980SSM    C4A45522  13.050  25.558   4.865
 3980SSM    C1B45523  12.733  25.904   3.728
 3980SSM    C2B45524  12.715  25.888   4.243
 3980SSM    C3B45525  12.596  25.836   4.695
 3980SSM    C4B45526  12.627  25.621   5.165
 3981SSM    NC345527  24.759  26.843   3.038
 3981SSM    PO445528  24.553  26.501   3.083
 3981SSM    OH145529  24.349  26.586   3.388
 3981SSM    AM245530  24.483  26.413   3.575
 3981SSM    T1A45531  24.243  26.697   3.695
 3981SSM    C2A45532  24.140  26.689   4.071
 3981SSM    C3A45533  23.854  26.742   4.462
 3981SSM    C4A45534  23.930  26.350   4.849
 3981SSM    C1B45535  24.702  26.258   3.963
 3981SSM    C2B45536  24.854  26.036   4.344
 3981SSM    C3B45537  24.921  25.613   4.604
 3981SSM    C4B45538  25.349  25.507   4.850
 3982SSM    NC345539  24.279  13.888   3.667
 3982SSM    PO445540  23.880  13.941   3.613
 3982SSM    OH145541  23.747  13.671   3.838
 3982SSM    AM245542  24.047  13.615   3.960
 3982SSM    T1A45543  23.709  13.378   3.987
 3982SSM    C2A45544  23.941  13.355   4.307
 3982SSM    C3A45545  24.347  13.409   4.571
 3982SSM    C4A45546  24.465  13.690   4.941
 3982SSM    C1B45547  24.340  13.714   4.165
 3982SSM    C2B45548  24.604  13.885   4.520
 3982SSM    C3B45549  24.732  14.312   4.599
 3982SSM    C4B45550  24.726  14.556   5.093
 3983SSM    NC345551   6.156   4.432   3.384
 3983SSM    PO445552   6.412   4.135   3.346
 3983SSM    OH145553   6.201   3.860   3.518
 3983SSM    AM245554   6.415   3.663   3.610
 3983SSM    T1A45555   5.951   3.696   3.685
 3983SSM    C2A45556   5.728   3.650   3.993
 3983SSM    C3A45557   5.538   3.505   4.474
 3983SSM    C4A45558   5.265   3.472   4.910
 3983SSM    C1B45559   6.496   3.359   3.842
 3983SSM    C2B45560   6.374   3.231   4.342
 3983SSM    C3B45561   6.246   2.991   4.761
 3983SSM    C4B45562   6.123   3.029   5.227
 3984SSM    NC345563  28.421  15.821   2.934
 3984SSM    PO445564  28.060  15.805   3.175
 3984SSM    OH145565  27.874  15.777   3.562
 3984SSM    AM245566  28.133  15.906   3.647
 3984SSM    T1A45567  27.790  15.901   3.860
 3984SSM    C2A45568  27.910  15.779   4.280
 3984SSM    C3A45569  27.854  15.848   4.784
 3984SSM    C4A45570  27.819  15.908   5.294
 3984SSM    C1B45571  28.398  16.149   3.860
 3984SSM    C2B45572  28.482  16.261   4.318
 3984SSM    C3B45573  28.592  16.350   4.835
 3984SSM    C4B45574  28.655  16.421   5.307
 3985SSM    NC345575   0.801   9.470   2.951
 3985SSM    PO445576   0.927   9.188   3.201
 3985SSM    OH145577   0.993   9.385   3.524
 3985SSM    AM245578   0.992   9.136   3.664
 3985SSM    T1A45579   1.035   9.568   3.805
 3985SSM    C2A45580   0.735   9.762   3.978
 3985SSM    C3A45581   0.377  10.077   4.122
 3985SSM    C4A45582   0.255  10.551   4.382
 3985SSM    C1B45583   0.990   8.899   3.938
 3985SSM    C2B45584   0.919   8.852   4.375
 3985SSM    C3B45585   0.998   8.815   4.855
 3985SSM    C4B45586   1.086   8.858   5.349
 3986SSM    NC345587   2.128  35.977   3.104
 3986SSM    PO445588   1.949  36.286   3.240
 3986SSM    OH145589   1.971  36.468   3.581
 3986SSM    AM245590   2.281  36.432   3.623
 3986SSM    T1A45591   1.972  36.488   3.920
 3986SSM    C2A45592   1.844  36.645   4.273
 3986SSM    C3A45593   1.762  37.010   4.559
 3986SSM    C4A45594   1.966  37.304   4.888
 3986SSM    C1B45595   2.450  36.452   3.939
 3986SSM    C2B45596   2.772  36.375   4.378
 3986SSM    C3B45597   3.038  36.272   4.789
 3986SSM    C4B45598   3.450  36.530   4.964
 3987SSM    NC345599  15.407  11.636   3.409
 3987SSM    PO445600  15.728  11.427   3.538
 3987SSM    OH145601  15.693  11.698   3.810
 3987SSM    AM245602  15.783  11.460   4.014
 3987SSM    T1A45603  15.655  11.903   4.090
 3987SSM    C2A45604  15.408  12.092   4.310
 3987SSM    C3A45605  15.183  12.124   4.752
 3987SSM    C4A45606  14.833  12.374   4.991
 3987SSM    C1B45607  15.864  11.183   4.248
 3987SSM    C2B45608  15.637  10.825   4.589
 3987SSM    C3B45609  15.585  10.910   5.027
 3987SSM    C4B45610  15.499  11.071   5.490
 3988SSM    NC345611   6.206  18.708   3.080
 3988SSM    PO445612   5.902  18.811   2.866
 3988SSM    OH145613   5.705  18.887   3.177
 3988SSM    AM245614   5.805  18.652   3.332
 3988SSM    T1A45615   5.419  18.940   3.370
 3988SSM    C2A45616   5.494  19.120   3.732
 3988SSM    C3A45617   5.461  19.358   4.170
 3988SSM    C4A45618   5.916  19.440   4.428
 3988SSM    C1B45619   5.845  18.465   3.714
 3988SSM    C2B45620   6.005  18.354   4.167
 3988SSM    C3B45621   5.971  18.449   4.596
 3988SSM    C4B45622   5.579  18.529   4.839
 3989SSM    NC345623  22.177  16.979   3.341
 3989SSM    PO445624  21.836  16.788   3.369
 3989SSM    OH145625  21.821  16.718   3.743
 3989SSM    AM245626  22.092  16.846   3.785
 3989SSM    T1A45627  21.802  16.611   4.079
 3989SSM    C2A45628  22.030  16.577   4.407
 3989SSM    C3A45629  22.058  16.514   4.883
 3989SSM    C4A45630  21.959  16.165   5.194
 3989SSM    C1B45631  22.272  16.853   4.079
 3989SSM    C2B45632  22.549  16.868   4.509
 3989SSM    C3B45633  22.656  16.715   4.947
 3989SSM    C4B45634  22.846  16.555   5.354
 3990SSM    NC345635  18.078   8.993   3.411
 3990SSM    PO445636  18.170   8.618   3.517
 3990SSM    OH145637  18.190   8.607   3.901
 3990SSM    AM245638  17.995   8.863   3.934
 3990SSM    T1A45639  18.135   8.593   4.237
 3990SSM    C2A45640  17.887   8.583   4.538
 3990SSM    C3A45641  17.672   8.522   4.859
 3990SSM    C4A45642  17.347   8.670   5.243
 3990SSM    C1B45643  17.843   9.102   4.187
 3990SSM    C2B45644  17.750   9.174   4.707
 3990SSM    C3B45645  17.677   9.138   5.203
 3990SSM    C4B45646  17.566   8.948   5.630
 3991SSM    NC345647   6.095   8.192   3.367
 3991SSM    PO445648   5.722   8.162   3.359
 3991SSM    OH145649   5.652   8.370   3.679
 3991SSM    AM245650   5.933   8.346   3.768
 3991SSM    T1A45651   5.625   8.493   4.001
 3991SSM    C2A45652   5.692   8.588   4.405
 3991SSM    C3A45653   5.695   8.636   4.870
 3991SSM    C4A45654   5.593   8.711   5.370
 3991SSM    C1B45655   6.024   8.340   4.082
 3991SSM    C2B45656   6.183   8.482   4.504
 3991SSM    C3B45657   6.280   8.467   4.951
 3991SSM    C4B45658   6.439   8.642   5.393
 3992SSM    NC345659   8.055  35.325   3.338
 3992SSM    PO445660   7.694  35.347   3.226
 3992SSM    OH145661   7.551  35.563   3.474
 3992SSM    AM245662   7.822  35.731   3.484
 3992SSM    T1A45663   7.373  35.771   3.691
 3992SSM    C2A45664   7.216  35.779   4.066
 3992SSM    C3A45665   7.212  35.793   4.517
 3992SSM    C4A45666   7.702  35.776   4.633
 3992SSM    C1B45667   8.004  35.888   3.778
 3992SSM    C2B45668   8.180  36.049   4.267
 3992SSM    C3B45669   8.305  36.318   4.677
 3992SSM    C4B45670   8.689  36.526   4.945
 3993SSM    NC345671  29.969   3.506   3.435
 3993SSM    PO445672  30.087   3.191   3.236
 3993SSM    OH145673  30.398   3.153   3.476
 3993SSM    AM245674  30.357   3.418   3.607
 3993SSM    T1A45675  30.582   3.124   3.799
 3993SSM    C2A45676  30.733   3.175   4.130
 3993SSM    C3A45677  30.812   3.030   4.550
 3993SSM    C4A45678  30.766   2.920   4.999
 3993SSM    C1B45679  30.203   3.411   3.949
 3993SSM    C2B45680  30.049   3.246   4.407
 3993SSM    C3B45681  29.982   3.103   4.918
 3993SSM    C4B45682  29.827   3.119   5.410
 3994SSM    NC345683  26.324   9.172   3.081
 3994SSM    PO445684  26.372   9.452   3.345
 3994SSM    OH145685  26.232   9.453   3.661
 3994SSM    AM245686  26.459   9.520   3.826
 3994SSM    T1A45687  26.110   9.291   3.935
 3994SSM    C2A45688  26.200   9.060   4.285
 3994SSM    C3A45689  26.281   8.970   4.758
 3994SSM    C4A45690  26.331   8.880   5.308
 3994SSM    C1B45691  26.467   9.789   4.150
 3994SSM    C2B45692  26.407   9.887   4.690
 3994SSM    C3B45693  26.347  10.014   5.136
 3994SSM    C4B45694  26.332   9.871   5.655
 3995SSM    NC345695  32.021  15.185   3.104
 3995SSM    PO445696  31.999  15.577   3.251
 3995SSM    OH145697  32.178  15.354   3.513
 3995SSM    AM245698  32.174  15.563   3.735
 3995SSM    T1A45699  32.371  15.168   3.745
 3995SSM    C2A45700  32.298  15.103   4.163
 3995SSM    C3A45701  32.313  14.936   4.659
 3995SSM    C4A45702  32.441  14.907   5.171
 3995SSM    C1B45703  32.340  15.609   4.099
 3995SSM    C2B45704  32.540  15.471   4.516
 3995SSM    C3B45705  32.618  15.286   4.923
 3995SSM    C4B45706  32.722  15.259   5.430
 3996SSM    NC345707   5.083  13.687   4.059
 3996SSM    PO445708   5.303  13.993   3.823
 3996SSM    OH145709   5.358  14.200   4.161
 3996SSM    AM245710   5.251  13.991   4.336
 3996SSM    T1A45711   5.510  14.310   4.474
 3996SSM    C2A45712   5.654  14.371   4.817
 3996SSM    C3A45713   5.926  14.473   5.130
 3996SSM    C4A45714   5.811  14.816   5.498
 3996SSM    C1B45715   5.374  13.903   4.719
 3996SSM    C2B45716   5.468  13.966   5.242
 3996SSM    C3B45717   5.461  14.051   5.701
 3996SSM    C4B45718   5.306  14.397   6.027
 3997SSM    NC345719   5.239  20.445   3.177
 3997SSM    PO445720   5.156  20.709   3.446
 3997SSM    OH145721   5.235  20.494   3.705
 3997SSM    AM245722   5.414  20.666   3.891
 3997SSM    T1A45723   5.218  20.310   3.981
 3997SSM    C2A45724   5.496  20.316   4.271
 3997SSM    C3A45725   5.547  20.214   4.739
 3997SSM    C4A45726   5.459  20.007   5.138
 3997SSM    C1B45727   5.705  20.724   4.119
 3997SSM    C2B45728   5.987  20.581   4.435
 3997SSM    C3B45729   6.137  20.313   4.794
 3997SSM    C4B45730   6.028  20.031   5.248
 3998SSM    NC345731  26.084  13.553   3.294
 3998SSM    PO445732  26.100  13.944   3.218
 3998SSM    OH145733  26.161  14.118   3.567
 3998SSM    AM245734  26.207  13.840   3.711
 3998SSM    T1A45735  26.252  14.178   3.880
 3998SSM    C2A45736  26.149  14.096   4.281
 3998SSM    C3A45737  26.142  14.035   4.789
 3998SSM    C4A45738  26.222  14.059   5.291
 3998SSM    C1B45739  26.278  13.603   4.001
 3998SSM    C2B45740  26.310  13.483   4.491
 3998SSM    C3B45741  26.257  13.215   4.891
 3998SSM    C4B45742  26.208  13.055   5.323
 3999SSM    NC345743  25.467  21.871   3.037
 3999SSM    PO445744  25.247  21.746   3.370
 3999SSM    OH145745  25.396  21.897   3.662
 3999SSM    AM245746  25.168  22.017   3.785
 3999SSM    T1A45747  25.565  21.970   3.967
 3999SSM    C2A45748  25.575  22.020   4.316
 3999SSM    C3A45749  25.643  22.022   4.755
 3999SSM    C4A45750  25.683  22.168   5.190
 3999SSM    C1B45751  25.103  22.019   4.141
 3999SSM    C2B45752  25.034  22.043   4.641
 3999SSM    C3B45753  25.185  21.813   5.024
 3999SSM    C4B45754  25.352  21.511   5.293
 4000SSM    NC345755   5.039   5.490   3.049
 4000SSM    PO445756   4.899   5.654   3.387
 4000SSM    OH145757   4.953   5.553   3.714
 4000SSM    AM245758   4.661   5.544   3.781
 4000SSM    T1A45759   5.007   5.497   4.038
 4000SSM    C2A45760   5.048   5.634   4.392
 4000SSM    C3A45761   5.247   5.978   4.744
 4000SSM    C4A45762   5.543   5.946   5.171
 4000SSM    C1B45763   4.468   5.551   4.138
 4000SSM    C2B45764   4.110   5.320   4.473
 4000SSM    C3B45765   4.035   5.169   4.923
 4000SSM    C4B45766   3.992   5.299   5.390
 4001SSM    NC345767  14.635  30.210   3.974
 4001SSM    PO445768  14.531  29.816   3.934
 4001SSM    OH145769  14.434  29.778   4.251
 4001SSM    AM245770  14.638  29.987   4.375
 4001SSM    T1A45771  14.276  29.824   4.572
 4001SSM    C2A45772  14.429  29.872   4.957
 4001SSM    C3A45773  14.545  29.895   5.419
 4001SSM    C4A45774  14.694  29.839   5.884
 4001SSM    C1B45775  14.857  30.074   4.690
 4001SSM    C2B45776  15.051  30.317   5.133
 4001SSM    C3B45777  15.341  30.315   5.526
 4001SSM    C4B45778  15.603  30.523   5.843
 4002SSM    NC345779  27.158  22.860   3.353
 4002SSM    PO445780  26.742  22.930   3.349
 4002SSM    OH145781  26.501  22.842   3.612
 4002SSM    AM245782  26.529  23.088   3.782
 4002SSM    T1A45783  26.399  22.691   3.900
 4002SSM    C2A45784  26.302  22.741   4.335
 4002SSM    C3A45785  26.193  22.972   4.727
 4002SSM    C4A45786  26.129  23.401   5.026
 4002SSM    C1B45787  26.551  23.214   4.069
 4002SSM    C2B45788  26.516  23.289   4.555
 4002SSM    C3B45789  26.734  23.263   4.973
 4002SSM    C4B45790  26.956  23.004   5.330
 4003SSM    NC345791  32.862  12.582   3.593
 4003SSM    PO445792  33.258  12.669   3.588
 4003SSM    OH145793  33.576  12.712   3.837
 4003SSM    AM245794  33.371  12.875   3.972
 4003SSM    T1A45795  33.745  12.740   4.152
 4003SSM    C2A45796  33.727  12.721   4.513
 4003SSM    C3A45797  33.993  12.784   4.860
 4003SSM    C4A45798  34.280  12.746   5.187
 4003SSM    C1B45799  33.401  13.083   4.300
 4003SSM    C2B45800  33.909  13.179   4.499
 4003SSM    C3B45801  34.295  13.163   4.778
 4003SSM    C4B45802  34.639  13.239   5.078
 4004SSM    NC345803  26.824   4.045   3.134
 4004SSM    PO445804  26.706   4.259   3.453
 4004SSM    OH145805  26.848   4.160   3.800
 4004SSM    AM245806  26.772   4.428   3.878
 4004SSM    T1A45807  26.788   4.146   4.159
 4004SSM    C2A45808  26.899   4.206   4.572
 4004SSM    C3A45809  26.920   4.281   5.041
 4004SSM    C4A45810  26.544   4.283   5.361
 4004SSM    C1B45811  26.853   4.658   4.190
 4004SSM    C2B45812  27.005   4.765   4.691
 4004SSM    C3B45813  27.098   4.991   5.119
 4004SSM    C4B45814  26.878   5.398   5.283
 4005SSM    NC345815   4.859  10.417   3.744
 4005SSM    PO445816   4.491  10.414   3.565
 4005SSM    OH145817   4.238  10.385   3.860
 4005SSM    AM245818   4.473  10.375   4.053
 4005SSM    T1A45819   4.074  10.150   4.072
 4005SSM    C2A45820   4.024  10.133   4.462
 4005SSM    C3A45821   4.363  10.187   4.760
 4005SSM    C4A45822   4.850  10.092   4.764
 4005SSM    C1B45823   4.574  10.091   4.322
 4005SSM    C2B45824   4.496   9.744   4.670
 4005SSM    C3B45825   4.415   9.678   5.114
 4005SSM    C4B45826   4.723   9.949   5.312
 4006SSM    NC345827  14.350  28.820   3.010
 4006SSM    PO445828  14.462  29.053   3.330
 4006SSM    OH145829  14.234  29.049   3.570
 4006SSM    AM245830  14.429  28.880   3.775
 4006SSM    T1A45831  13.970  28.982   3.806
 4006SSM    C2A45832  13.870  28.784   4.157
 4006SSM    C3A45833  13.848  28.740   4.699
 4006SSM    C4A45834  13.962  28.653   5.186
 4006SSM    C1B45835  14.635  28.841   4.125
 4006SSM    C2B45836  14.657  28.949   4.640
 4006SSM    C3B45837  14.734  28.917   5.111
 4006SSM    C4B45838  14.704  28.894   5.543
 4007SSM    NC345839  11.600  18.864   2.610
 4007SSM    PO445840  11.711  18.960   3.007
 4007SSM    OH145841  11.430  18.847   3.209
 4007SSM    AM245842  11.395  19.126   3.317
 4007SSM    T1A45843  11.129  18.764   3.348
 4007SSM    C2A45844  10.970  18.851   3.651
 4007SSM    C3A45845  10.724  19.059   4.029
 4007SSM    C4A45846  10.687  19.309   4.504
 4007SSM    C1B45847  11.486  19.342   3.621
 4007SSM    C2B45848  11.617  19.747   3.967
 4007SSM    C3B45849  11.802  19.922   4.400
 4007SSM    C4B45850  11.853  20.018   4.904
 4008SSM    NC345851  17.417   4.463   4.078
 4008SSM    PO445852  17.380   4.094   4.063
 4008SSM    OH145853  17.112   4.214   4.295
 4008SSM    AM245854  17.013   3.897   4.291
 4008SSM    T1A45855  17.032   4.197   4.628
 4008SSM    C2A45856  16.787   3.986   4.875
 4008SSM    C3A45857  16.861   3.748   5.278
 4008SSM    C4A45858  17.122   3.784   5.625
 4008SSM    C1B45859  16.829   3.659   4.450
 4008SSM    C2B45860  16.489   3.360   4.788
 4008SSM    C3B45861  16.246   3.069   5.091
 4008SSM    C4B45862  16.146   2.585   5.238
 4009SSM    NC345863  13.571   1.898   3.152
 4009SSM    PO445864  13.444   2.178   3.375
 4009SSM    OH145865  13.557   2.238   3.729
 4009SSM    AM245866  13.534   1.936   3.749
 4009SSM    T1A45867  13.580   2.216   4.074
 4009SSM    C2A45868  13.650   2.264   4.437
 4009SSM    C3A45869  14.073   2.474   4.680
 4009SSM    C4A45870  14.323   2.481   5.103
 4009SSM    C1B45871  13.375   1.549   3.884
 4009SSM    C2B45872  13.590   1.088   4.103
 4009SSM    C3B45873  13.785   0.942   4.555
 4009SSM    C4B45874  13.945   0.918   5.014
 4010SSM    NC345875  33.691  23.069   3.383
 4010SSM    PO445876  33.822  22.712   3.478
 4010SSM    OH145877  33.952  22.784   3.840
 4010SSM    AM245878  33.784  23.038   3.840
 4010SSM    T1A45879  34.050  22.889   4.139
 4010SSM    C2A45880  34.215  23.127   4.389
 4010SSM    C3A45881  34.141  23.369   4.835
 4010SSM    C4A45882  34.260  23.550   5.311
 4010SSM    C1B45883  33.724  23.200   4.174
 4010SSM    C2B45884  33.602  23.441   4.634
 4010SSM    C3B45885  33.467  23.790   4.905
 4010SSM    C4B45886  33.428  24.229   5.173
 4011SSM    NC345887  29.456   1.684   3.383
 4011SSM    PO445888  29.142   1.774   3.602
 4011SSM    OH145889  28.840   1.580   3.678
 4011SSM    AM245890  28.862   1.649   3.973
 4011SSM    T1A45891  28.593   1.377   3.813
 4011SSM    C2A45892  28.580   1.142   4.092
 4011SSM    C3A45893  28.369   0.934   4.424
 4011SSM    C4A45894  28.276   0.941   4.896
 4011SSM    C1B45895  28.613   1.683   4.305
 4011SSM    C2B45896  28.297   1.826   4.686
 4011SSM    C3B45897  27.965   1.920   5.053
 4011SSM    C4B45898  27.649   1.974   5.476
 4012SSM    NC345899  22.162   5.026   3.449
 4012SSM    PO445900  22.435   5.298   3.545
 4012SSM    OH145901  22.300   5.450   3.843
 4012SSM    AM245902  22.181   5.179   3.953
 4012SSM    T1A45903  22.126   5.597   4.080
 4012SSM    C2A45904  21.914   5.800   4.335
 4012SSM    C3A45905  21.647   5.827   4.762
 4012SSM    C4A45906  21.728   5.708   5.289
 4012SSM    C1B45907  22.267   4.864   4.215
 4012SSM    C2B45908  22.492   4.700   4.598
 4012SSM    C3B45909  22.655   4.680   5.049
 4012SSM    C4B45910  22.872   4.501   5.488
 4013SSM    NC345911  14.256   9.770   3.079
 4013SSM    PO445912  14.069  10.084   3.193
 4013SSM    OH145913  13.833  10.015   3.497
 4013SSM    AM245914  14.042   9.967   3.712
 4013SSM    T1A45915  13.590   9.842   3.694
 4013SSM    C2A45916  13.607   9.908   4.033
 4013SSM    C3A45917  13.652  10.284   4.377
 4013SSM    C4A45918  13.844  10.578   4.745
 4013SSM    C1B45919  14.144   9.984   4.054
 4013SSM    C2B45920  14.249  10.009   4.598
 4013SSM    C3B45921  14.012  10.160   4.978
 4013SSM    C4B45922  13.820  10.377   5.397
 4014SSM    NC345923  35.713  28.166   3.948
 4014SSM    PO445924  35.713  28.041   3.571
 4014SSM    OH145925  35.962  27.734   3.571
 4014SSM    AM245926  35.941  27.678   3.858
 4014SSM    T1A45927  36.068  27.411   3.564
 4014SSM    C2A45928  36.132  27.103   3.856
 4014SSM    C3A45929  36.279  26.981   4.309
 4014SSM    C4A45930  36.297  27.081   4.740
 4014SSM    C1B45931  35.966  27.787   4.263
 4014SSM    C2B45932  35.994  27.847   4.755
 4014SSM    C3B45933  35.827  27.773   5.206
 4014SSM    C4B45934  35.664  28.005   5.572
 4015SSM    NC345935   9.413  27.595   2.778
 4015SSM    PO445936   9.316  27.973   2.965
 4015SSM    OH145937   9.166  28.197   3.205
 4015SSM    AM245938   9.306  28.039   3.431
 4015SSM    T1A45939   9.049  28.448   3.420
 4015SSM    C2A45940   8.974  28.489   3.796
 4015SSM    C3A45941   8.874  28.566   4.310
 4015SSM    C4A45942   8.588  28.530   4.713
 4015SSM    C1B45943   9.322  27.990   3.830
 4015SSM    C2B45944   9.736  27.988   4.214
 4015SSM    C3B45945   9.896  28.082   4.713
 4015SSM    C4B45946  10.114  28.318   5.085
 4016SSM    NC345947  16.521   8.179   3.902
 4016SSM    PO445948  16.662   8.501   3.709
 4016SSM    OH145949  16.726   8.710   3.971
 4016SSM    AM245950  16.746   8.496   4.179
 4016SSM    T1A45951  16.583   8.888   4.241
 4016SSM    C2A45952  16.560   9.004   4.648
 4016SSM    C3A45953  16.470   9.172   5.058
 4016SSM    C4A45954  16.345   9.388   5.479
 4016SSM    C1B45955  16.536   8.266   4.429
 4016SSM    C2B45956  16.482   8.085   4.884
 4016SSM    C3B45957  16.278   8.347   5.201
 4016SSM    C4B45958  15.880   8.366   5.464
 4017SSM    NC345959  34.296   6.016   2.969
 4017SSM    PO445960  33.943   5.856   3.102
 4017SSM    OH145961  33.842   6.150   3.290
 4017SSM    AM245962  33.839   6.030   3.576
 4017SSM    T1A45963  33.890   6.443   3.467
 4017SSM    C2A45964  33.738   6.466   3.833
 4017SSM    C3A45965  33.732   6.603   4.308
 4017SSM    C4A45966  33.650   6.636   4.811
 4017SSM    C1B45967  33.693   5.923   3.911
 4017SSM    C2B45968  33.598   5.804   4.348
 4017SSM    C3B45969  33.456   5.752   4.774
 4017SSM    C4B45970  33.065   5.728   5.137
 4018SSM    NC345971  33.139  14.211   2.984
 4018SSM    PO445972  32.930  14.479   3.195
 4018SSM    OH145973  32.746  14.530   3.526
 4018SSM    AM245974  33.020  14.622   3.649
 4018SSM    T1A45975  32.658  14.577   3.863
 4018SSM    C2A45976  32.577  14.609   4.275
 4018SSM    C3A45977  32.519  14.444   4.726
 4018SSM    C4A45978  32.795  14.248   5.071
 4018SSM    C1B45979  33.203  14.601   4.040
 4018SSM    C2B45980  33.162  14.646   4.526
 4018SSM    C3B45981  33.218  14.618   4.994
 4018SSM    C4B45982  33.350  14.548   5.453
 4019SSM    NC345983  35.382  21.283   4.054
 4019SSM    PO445984  35.027  21.319   3.889
 4019SSM    OH145985  34.790  21.344   4.177
 4019SSM    AM245986  34.852  21.061   4.268
 4019SSM    T1A45987  34.579  21.454   4.416
 4019SSM    C2A45988  34.363  21.541   4.733
 4019SSM    C3A45989  34.224  21.621   5.172
 4019SSM    C4A45990  33.761  21.592   5.258
 4019SSM    C1B45991  34.978  20.850   4.519
 4019SSM    C2B45992  35.048  20.703   4.973
 4019SSM    C3B45993  35.123  20.615   5.402
 4019SSM    C4B45994  35.200  20.661   5.854
 4020SSM    NC345995  32.180  17.720   3.681
 4020SSM    PO445996  32.519  17.571   3.797
 4020SSM    OH145997  32.482  17.462   4.169
 4020SSM    AM245998  32.567  17.745   4.267
 4020SSM    T1A45999  32.594  17.368   4.485
 4020SSM    C2A46000  32.634  17.448   4.870
 4020SSM    C3A46001  32.680  17.810   5.097
 4020SSM    C4A46002  32.789  18.165   5.402
 4020SSM    C1B46003  32.599  17.963   4.607
 4020SSM    C2B46004  32.495  18.275   5.016
 4020SSM    C3B46005  32.194  18.447   5.418
 4020SSM    C4B46006  31.762  18.515   5.579
 4021SSM    NC346007  14.849   5.374   3.385
 4021SSM    PO446008  15.238   5.314   3.533
 4021SSM    OH146009  15.360   5.309   3.887
 4021SSM    AM246010  15.403   5.608   3.915
 4021SSM    T1A46011  15.605   5.252   4.106
 4021SSM    C2A46012  15.547   5.340   4.496
 4021SSM    C3A46013  15.650   5.317   5.008
 4021SSM    C4A46014  15.903   5.287   5.433
 4021SSM    C1B46015  15.596   5.770   4.235
 4021SSM    C2B46016  15.669   5.834   4.733
 4021SSM    C3B46017  15.835   5.825   5.187
 4021SSM    C4B46018  16.055   5.731   5.605
 4022SSM    NC346019  24.915  22.798   2.986
 4022SSM    PO446020  24.908  23.007   3.241
 4022SSM    OH146021  25.108  23.231   3.500
 4022SSM    AM246022  24.832  23.329   3.598
 4022SSM    T1A46023  25.257  23.305   3.814
 4022SSM    C2A46024  25.358  23.351   4.207
 4022SSM    C3A46025  25.242  23.352   4.659
 4022SSM    C4A46026  25.044  23.146   5.101
 4022SSM    C1B46027  24.579  23.344   3.884
 4022SSM    C2B46028  24.446  23.420   4.352
 4022SSM    C3B46029  24.200  23.395   4.736
 4022SSM    C4B46030  24.075  23.126   5.120
 4023SSM    NC346031  16.841  17.861   3.331
 4023SSM    PO446032  16.817  18.175   3.592
 4023SSM    OH146033  16.845  18.246   3.953
 4023SSM    AM246034  16.540  18.240   3.992
 4023SSM    T1A46035  16.846  18.314   4.312
 4023SSM    C2A46036  16.655  18.458   4.626
 4023SSM    C3A46037  16.579  18.404   5.102
 4023SSM    C4A46038  16.762  18.404   5.622
 4023SSM    C1B46039  16.411  18.201   4.346
 4023SSM    C2B46040  16.257  18.050   4.789
 4023SSM    C3B46041  16.247  17.986   5.259
 4023SSM    C4B46042  16.095  17.533   5.385
 4024SSM    NC346043  32.436  11.821   3.295
 4024SSM    PO446044  32.121  11.570   3.303
 4024SSM    OH146045  32.029  11.528   3.635
 4024SSM    AM246046  32.228  11.708   3.785
 4024SSM    T1A46047  32.009  11.352   3.929
 4024SSM    C2A46048  32.359  11.306   4.130
 4024SSM    C3A46049  32.498  11.132   4.538
 4024SSM    C4A46050  32.613  10.927   4.995
 4024SSM    C1B46051  32.382  11.816   4.006
 4024SSM    C2B46052  32.676  11.858   4.376
 4024SSM    C3B46053  32.930  11.902   4.795
 4024SSM    C4B46054  33.186  11.930   5.215
 4025SSM    NC346055  28.357  21.570   3.022
 4025SSM    PO446056  28.699  21.647   2.856
 4025SSM    OH146057  28.914  21.803   3.183
 4025SSM    AM246058  28.724  21.605   3.334
 4025SSM    T1A46059  28.882  22.010   3.456
 4025SSM    C2A46060  29.074  22.306   3.713
 4025SSM    C3A46061  29.364  22.616   3.842
 4025SSM    C4A46062  29.407  22.925   4.224
 4025SSM    C1B46063  28.482  21.630   3.632
 4025SSM    C2B46064  28.271  21.606   4.088
 4025SSM    C3B46065  28.323  21.688   4.507
 4025SSM    C4B46066  28.388  21.816   4.986
 4026SSM    NC346067   5.538  30.955   3.035
 4026SSM    PO446068   5.757  31.287   3.020
 4026SSM    OH146069   5.777  31.258   3.408
 4026SSM    AM246070   5.535  31.086   3.453
 4026SSM    T1A46071   5.755  31.310   3.736
 4026SSM    C2A46072   5.706  31.344   4.124
 4026SSM    C3A46073   5.662  31.461   4.605
 4026SSM    C4A46074   5.530  31.541   5.055
 4026SSM    C1B46075   5.444  30.979   3.867
 4026SSM    C2B46076   5.494  30.993   4.390
 4026SSM    C3B46077   5.483  31.028   4.889
 4026SSM    C4B46078   5.596  31.016   5.320
 4027SSM    NC346079  32.056  19.949   3.576
 4027SSM    PO446080  32.282  20.190   3.792
 4027SSM    OH146081  32.446  20.126   4.114
 4027SSM    AM246082  32.191  20.000   4.239
 4027SSM    T1A46083  32.421  20.325   4.392
 4027SSM    C2A46084  32.400  20.077   4.715
 4027SSM    C3A46085  32.738  20.028   4.982
 4027SSM    C4A46086  33.050  20.278   5.190
 4027SSM    C1B46087  32.052  19.776   4.554
 4027SSM    C2B46088  31.716  19.726   4.916
 4027SSM    C3B46089  31.417  19.583   5.309
 4027SSM    C4B46090  30.965  19.349   5.337
 4028SSM    NC346091  16.307   9.944   3.241
 4028SSM    PO446092  16.040  10.156   3.478
 4028SSM    OH146093  15.764  10.088   3.742
 4028SSM    AM246094  15.883   9.879   3.894
 4028SSM    T1A46095  15.679  10.195   4.073
 4028SSM    C2A46096  15.744  10.305   4.459
 4028SSM    C3A46097  15.749  10.456   4.928
 4028SSM    C4A46098  15.895  10.645   5.349
 4028SSM    C1B46099  16.037   9.806   4.246
 4028SSM    C2B46100  16.012   9.885   4.722
 4028SSM    C3B46101  15.976  10.068   5.194
 4028SSM    C4B46102  15.662  10.255   5.558
 4029SSM    NC346103   4.773  26.711   3.643
 4029SSM    PO446104   4.718  26.469   3.312
 4029SSM    OH146105   4.744  26.218   3.602
 4029SSM    AM246106   5.056  26.245   3.592
 4029SSM    T1A46107   4.788  25.954   3.807
 4029SSM    C2A46108   4.817  25.870   4.215
 4029SSM    C3A46109   4.767  25.956   4.684
 4029SSM    C4A46110   4.853  26.282   4.965
 4029SSM    C1B46111   5.161  26.299   3.981
 4029SSM    C2B46112   5.224  26.130   4.463
 4029SSM    C3B46113   5.330  26.271   4.894
 4029SSM    C4B46114   5.188  26.274   5.385
 4030SSM    NC346115  27.006  13.084   3.603
 4030SSM    PO446116  26.731  13.222   3.331
 4030SSM    OH146117  26.448  13.263   3.532
 4030SSM    AM246118  26.605  13.411   3.746
 4030SSM    T1A46119  26.209  13.210   3.788
 4030SSM    C2A46120  26.102  13.109   4.161
 4030SSM    C3A46121  25.924  12.975   4.582
 4030SSM    C4A46122  25.714  13.061   5.016
 4030SSM    C1B46123  26.723  13.376   4.099
 4030SSM    C2B46124  26.752  13.236   4.514
 4030SSM    C3B46125  26.742  13.032   4.955
 4030SSM    C4B46126  26.953  12.954   5.291
 4031SSM    NC346127   8.604   8.132   2.886
 4031SSM    PO446128   8.701   8.406   3.194
 4031SSM    OH146129   8.530   8.501   3.449
 4031SSM    AM246130   8.727   8.670   3.589
 4031SSM    T1A46131   8.438   8.357   3.736
 4031SSM    C2A46132   8.470   8.315   4.132
 4031SSM    C3A46133   8.650   8.126   4.484
 4031SSM    C4A46134   8.718   7.710   4.834
 4031SSM    C1B46135   8.913   8.616   3.969
 4031SSM    C2B46136   8.951   8.602   4.435
 4031SSM    C3B46137   8.860   8.729   4.832
 4031SSM    C4B46138   8.648   8.839   5.268
 4032SSM    NC346139  11.312  31.659   2.940
 4032SSM    PO446140  10.958  31.829   3.071
 4032SSM    OH146141  10.999  31.956   3.402
 4032SSM    AM246142  11.280  31.914   3.437
 4032SSM    T1A46143  10.977  31.987   3.747
 4032SSM    C2A46144  10.931  31.851   4.126
 4032SSM    C3A46145  10.694  31.760   4.549
 4032SSM    C4A46146  10.470  32.057   4.813
 4032SSM    C1B46147  11.389  31.896   3.868
 4032SSM    C2B46148  11.369  31.670   4.325
 4032SSM    C3B46149  11.160  31.685   4.756
 4032SSM    C4B46150  10.716  31.650   5.024
 4033SSM    NC346151  26.882   4.869   3.627
 4033SSM    PO446152  26.554   4.779   3.372
 4033SSM    OH146153  26.276   4.923   3.604
 4033SSM    AM246154  26.430   4.757   3.804
 4033SSM    T1A46155  26.058   4.991   3.837
 4033SSM    C2A46156  26.262   5.101   4.205
 4033SSM    C3A46157  26.645   5.125   4.474
 4033SSM    C4A46158  26.712   5.502   4.799
 4033SSM    C1B46159  26.371   4.612   4.108
 4033SSM    C2B46160  26.495   4.559   4.550
 4033SSM    C3B46161  26.612   4.707   5.030
 4033SSM    C4B46162  26.611   4.849   5.460
 4034SSM    NC346163   9.740  18.611   3.067
 4034SSM    PO446164   9.551  18.948   3.220
 4034SSM    OH146165   9.390  19.045   3.513
 4034SSM    AM246166   9.599  19.139   3.714
 4034SSM    T1A46167   9.137  19.111   3.734
 4034SSM    C2A46168   9.044  19.305   4.005
 4034SSM    C3A46169   9.214  19.488   4.445
 4034SSM    C4A46170   9.518  19.501   4.832
 4034SSM    C1B46171   9.685  19.395   4.032
 4034SSM    C2B46172   9.785  19.669   4.475
 4034SSM    C3B46173   9.747  19.982   4.705
 4034SSM    C4B46174   9.572  20.283   5.074
 4035SSM    NC346175  13.266  25.349   3.369
 4035SSM    PO446176  13.575  25.409   3.185
 4035SSM    OH146177  13.837  25.506   3.406
 4035SSM    AM246178  13.688  25.387   3.642
 4035SSM    T1A46179  13.966  25.726   3.623
 4035SSM    C2A46180  13.984  25.920   3.970
 4035SSM    C3A46181  14.022  25.982   4.444
 4035SSM    C4A46182  13.834  26.117   4.866
 4035SSM    C1B46183  13.528  25.353   3.962
 4035SSM    C2B46184  13.920  25.541   4.235
 4035SSM    C3B46185  13.858  25.590   4.699
 4035SSM    C4B46186  13.969  25.461   5.122
 4036SSM    NC346187   5.880  11.997   2.709
 4036SSM    PO446188   5.816  11.934   3.074
 4036SSM    OH146189   6.023  12.059   3.355
 4036SSM    AM246190   5.939  11.801   3.536
 4036SSM    T1A46191   6.293  12.074   3.568
 4036SSM    C2A46192   6.409  12.471   3.782
 4036SSM    C3A46193   6.909  12.586   3.765
 4036SSM    C4A46194   7.273  12.819   3.926
 4036SSM    C1B46195   6.011  11.682   3.977
 4036SSM    C2B46196   6.349  11.543   4.373
 4036SSM    C3B46197   6.776  11.563   4.678
 4036SSM    C4B46198   7.250  11.454   4.765
 4037SSM    NC346199  17.455   5.145   3.709
 4037SSM    PO446200  17.611   5.461   3.488
 4037SSM    OH146201  17.788   5.570   3.816
 4037SSM    AM246202  17.551   5.735   3.863
 4037SSM    T1A46203  17.707   5.469   4.127
 4037SSM    C2A46204  17.516   5.420   4.467
 4037SSM    C3A46205  17.104   5.532   4.684
 4037SSM    C4A46206  16.761   5.634   5.066
 4037SSM    C1B46207  17.394   5.799   4.182
 4037SSM    C2B46208  17.171   6.037   4.620
 4037SSM    C3B46209  17.325   6.189   5.016
 4037SSM    C4B46210  17.104   6.190   5.435
 4038SSM    NC346211  33.658  31.060   3.630
 4038SSM    PO446212  33.529  30.657   3.622
 4038SSM    OH146213  33.678  30.583   3.955
 4038SSM    AM246214  33.898  30.788   3.964
 4038SSM    T1A46215  33.589  30.689   4.289
 4038SSM    C2A46216  33.404  30.645   4.693
 4038SSM    C3A46217  33.213  30.295   4.979
 4038SSM    C4A46218  33.077  30.001   5.403
 4038SSM    C1B46219  34.032  31.155   4.136
 4038SSM    C2B46220  34.163  31.212   4.685
 4038SSM    C3B46221  34.089  30.783   4.932
 4038SSM    C4B46222  33.973  30.504   5.359
 4039SSM    NC346223  24.111  21.843   2.810
 4039SSM    PO446224  24.137  21.595   3.118
 4039SSM    OH146225  24.039  21.621   3.496
 4039SSM    AM246226  24.335  21.691   3.546
 4039SSM    T1A46227  24.086  21.512   3.833
 4039SSM    C2A46228  23.960  21.444   4.167
 4039SSM    C3A46229  23.956  21.360   4.647
 4039SSM    C4A46230  24.341  21.515   4.982
 4039SSM    C1B46231  24.593  21.882   3.841
 4039SSM    C2B46232  24.599  21.918   4.377
 4039SSM    C3B46233  24.661  21.913   4.870
 4039SSM    C4B46234  24.783  21.686   5.298
 4040SSM    NC346235  21.175  35.190   2.987
 4040SSM    PO446236  21.197  34.849   3.235
 4040SSM    OH146237  21.166  34.863   3.610
 4040SSM    AM246238  21.357  35.082   3.584
 4040SSM    T1A46239  21.162  34.978   3.922
 4040SSM    C2A46240  21.150  35.055   4.321
 4040SSM    C3A46241  21.199  35.235   4.731
 4040SSM    C4A46242  21.408  35.459   5.165
 4040SSM    C1B46243  21.529  35.267   3.883
 4040SSM    C2B46244  21.615  35.256   4.367
 4040SSM    C3B46245  21.797  35.272   4.845
 4040SSM    C4B46246  21.992  35.460   5.236
 4041SSM    NC346247  21.093   2.513   3.524
 4041SSM    PO446248  21.173   2.811   3.283
 4041SSM    OH146249  21.220   3.151   3.452
 4041SSM    AM246250  21.435   3.018   3.609
 4041SSM    T1A46251  21.233   3.436   3.690
 4041SSM    C2A46252  21.253   3.685   4.037
 4041SSM    C3A46253  21.341   3.817   4.482
 4041SSM    C4A46254  21.417   3.942   4.957
 4041SSM    C1B46255  21.656   3.197   3.897
 4041SSM    C2B46256  21.882   2.990   4.388
 4041SSM    C3B46257  22.162   2.866   4.785
 4041SSM    C4B46258  22.461   2.860   5.177
 4042SSM    NC346259  33.989  32.594   2.825
 4042SSM    PO446260  34.010  32.472   3.225
 4042SSM    OH146261  33.967  32.230   3.509
 4042SSM    AM246262  33.982  32.461   3.705
 4042SSM    T1A46263  33.935  32.007   3.791
 4042SSM    C2A46264  33.959  31.736   4.095
 4042SSM    C3A46265  33.844  31.614   4.526
 4042SSM    C4A46266  33.861  31.673   5.015
 4042SSM    C1B46267  34.045  32.541   4.076
 4042SSM    C2B46268  34.391  32.414   4.434
 4042SSM    C3B46269  34.540  32.557   4.846
 4042SSM    C4B46270  34.446  32.621   5.376
 4043SSM    NC346271   1.469  20.970   3.488
 4043SSM    PO446272   1.147  21.071   3.627
 4043SSM    OH146273   0.943  20.842   3.932
 4043SSM    AM246274   0.797  21.108   3.937
 4043SSM    T1A46275   0.800  20.766   4.243
 4043SSM    C2A46276   0.642  20.928   4.618
 4043SSM    C3A46277   0.552  21.195   4.975
 4043SSM    C4A46278   0.373  21.315   5.395
 4043SSM    C1B46279   0.617  21.346   4.237
 4043SSM    C2B46280   0.329  21.527   4.624
 4043SSM    C3B46281   0.115  21.694   4.992
 4043SSM    C4B46282  -0.082  21.524   5.395
 4044SSM    NC346283   1.099   3.938   2.784
 4044SSM    PO446284   0.841   4.132   3.034
 4044SSM    OH146285   1.066   4.262   3.281
 4044SSM    AM246286   1.323   4.093   3.176
 4044SSM    T1A46287   1.222   4.444   3.530
 4044SSM    C2A46288   1.412   4.730   3.742
 4044SSM    C3A46289   1.529   4.633   4.219
 4044SSM    C4A46290   1.777   4.567   4.635
 4044SSM    C1B46291   1.597   3.999   3.394
 4044SSM    C2B46292   1.919   3.857   3.794
 4044SSM    C3B46293   2.165   3.700   4.258
 4044SSM    C4B46294   2.283   3.706   4.727
 4045SSM    NC346295   6.851  14.812   3.582
 4045SSM    PO446296   7.237  14.746   3.540
 4045SSM    OH146297   7.489  14.860   3.819
 4045SSM    AM246298   7.243  14.889   3.989
 4045SSM    T1A46299   7.687  14.889   4.130
 4045SSM    C2A46300   7.762  14.994   4.513
 4045SSM    C3A46301   7.682  14.998   4.987
 4045SSM    C4A46302   7.573  14.903   5.445
 4045SSM    C1B46303   7.277  14.895   4.392
 4045SSM    C2B46304   7.247  14.649   4.857
 4045SSM    C3B46305   7.300  14.481   5.259
 4045SSM    C4B46306   7.313  14.284   5.669
 4046CHOL   ROH46307  33.711   1.319   4.020
 4046CHOL    R146308  34.140   1.343   4.060
 4046CHOL    R246309  33.910   1.214   4.286
 4046CHOL    R346310  34.460   1.193   4.300
 4046CHOL    R446311  34.140   1.061   4.427
 4046CHOL    R546312  33.951   1.039   4.109
 4046CHOL    R646313  34.357   0.937   4.317
 4046CHOL    C146314  34.532   0.970   4.628
 4046CHOL    C246315  34.955   0.929   4.754
 4047CHOL   ROH46316  33.558  24.853   7.321
 4047CHOL    R146317  33.758  25.038   6.987
 4047CHOL    R246318  33.541  24.766   6.983
 4047CHOL    R346319  33.752  25.046   6.559
 4047CHOL    R446320  33.497  24.810   6.680
 4047CHOL    R546321  33.402  24.976   6.997
 4047CHOL    R646322  33.476  25.043   6.540
 4047CHOL    C146323  33.574  24.872   6.242
 4047CHOL    C246324  33.735  24.847   5.842
 4048CHOL   ROH46325  14.884   8.226   7.188
 4048CHOL    R146326  15.062   8.038   6.843
 4048CHOL    R246327  14.764   8.217   6.861
 4048CHOL    R346328  15.029   8.028   6.417
 4048CHOL    R446329  14.773   8.254   6.553
 4048CHOL    R546330  14.954   8.383   6.850
 4048CHOL    R646331  14.988   8.300   6.391
 4048CHOL    C146332  14.804   8.168   6.113
 4048CHOL    C246333  14.809   8.016   5.713
 4049CHOL   ROH46334  10.043  17.583   3.595
 4049CHOL    R146335  10.041  17.932   3.848
 4049CHOL    R246336  10.131  17.607   3.932
 4049CHOL    R346337  10.183  18.068   4.228
 4049CHOL    R446338  10.281  17.717   4.180
 4049CHOL    R546339  10.326  17.713   3.813
 4049CHOL    R646340  10.429  17.944   4.206
 4049CHOL    C146341  10.374  17.940   4.559
 4049CHOL    C246342  10.551  18.086   4.943
 4050CHOL   ROH46343  22.248  19.689   4.537
 4050CHOL    R146344  21.901  19.945   4.519
 4050CHOL    R246345  21.988  19.719   4.769
 4050CHOL    R346346  21.584  20.092   4.765
 4050CHOL    R446347  21.795  19.864   4.962
 4050CHOL    R546348  22.123  19.929   4.804
 4050CHOL    R646349  21.743  20.131   4.988
 4050CHOL    C146350  21.426  20.055   5.134
 4050CHOL    C246351  21.108  20.249   5.398
 4051CHOL   ROH46352  30.188  15.820   4.290
 4051CHOL    R146353  30.082  16.188   4.487
 4051CHOL    R246354  30.323  15.956   4.581
 4051CHOL    R346355  30.223  16.455   4.790
 4051CHOL    R446356  30.456  16.172   4.760
 4051CHOL    R546357  30.421  16.100   4.399
 4051CHOL    R646358  30.489  16.439   4.714
 4051CHOL    C146359  30.515  16.496   5.066
 4051CHOL    C246360  30.450  16.850   5.296
 4052CHOL   ROH46361  33.984  13.137   7.072
 4052CHOL    R146362  33.902  12.909   6.715
 4052CHOL    R246363  34.068  13.214   6.742
 4052CHOL    R346364  34.013  12.888   6.302
 4052CHOL    R446365  34.191  13.168   6.461
 4052CHOL    R546366  34.231  13.031   6.803
 4052CHOL    R646367  34.281  12.937   6.348
 4052CHOL    C146368  34.232  13.079   6.023
 4052CHOL    C246369  34.028  13.010   5.668
 4053CHOL   ROH46370   5.027  12.440   4.124
 4053CHOL    R146371   5.268  12.383   4.477
 4053CHOL    R246372   4.974  12.566   4.445
 4053CHOL    R346373   5.254  12.438   4.901
 4053CHOL    R446374   4.939  12.557   4.752
 4053CHOL    R546375   4.912  12.323   4.466
 4053CHOL    R646376   4.992  12.353   4.926
 4053CHOL    C146377   5.021  12.589   5.193
 4053CHOL    C246378   5.187  12.861   5.484
 4054CHOL   ROH46379  19.100   8.467   4.056
 4054CHOL    R146380  19.305   8.352   4.418
 4054CHOL    R246381  18.992   8.503   4.386
 4054CHOL    R346382  19.234   8.298   4.836
 4054CHOL    R446383  18.924   8.413   4.674
 4054CHOL    R546384  18.965   8.256   4.342
 4054CHOL    R646385  18.986   8.180   4.802
 4054CHOL    C146386  18.949   8.344   5.118
 4054CHOL    C246387  19.067   8.119   5.471
 4055CHOL   ROH46388  32.574  10.599   6.705
 4055CHOL    R146389  32.286  10.661   6.389
 4055CHOL    R246390  32.541  10.424   6.405
 4055CHOL    R346391  32.133  10.473   6.037
 4055CHOL    R446392  32.396  10.261   6.184
 4055CHOL    R546393  32.347  10.340   6.543
 4055CHOL    R646394  32.129  10.219   6.148
 4055CHOL    C146395  32.189  10.150   5.802
 4055CHOL    C246396  32.133  10.112   5.364
 4056CHOL   ROH46397   3.491   8.335   7.197
 4056CHOL    R146398   3.773   8.547   6.949
 4056CHOL    R246399   3.626   8.237   6.891
 4056CHOL    R346400   3.938   8.541   6.555
 4056CHOL    R446401   3.701   8.262   6.591
 4056CHOL    R546402   3.460   8.415   6.827
 4056CHOL    R646403   3.698   8.483   6.430
 4056CHOL    C146404   3.936   8.326   6.214
 4056CHOL    C246405   4.075   8.338   5.794
 4057CHOL   ROH46406  35.080  19.456   5.704
 4057CHOL    R146407  35.313  19.379   6.059
 4057CHOL    R246408  35.263  19.171   5.785
 4057CHOL    R346409  35.605  19.108   6.212
 4057CHOL    R446410  35.512  19.007   5.870
 4057CHOL    R546411  35.441  19.339   5.724
 4057CHOL    R646412  35.749  19.093   5.976
 4057CHOL    C146413  35.803  18.769   6.117
 4057CHOL    C246414  35.994  18.499   6.420
 4058CHOL   ROH46415  24.882  26.724   3.561
 4058CHOL    R146416  24.634  26.697   3.912
 4058CHOL    R246417  24.968  26.606   3.878
 4058CHOL    R346418  24.661  26.633   4.334
 4058CHOL    R446419  24.998  26.614   4.186
 4058CHOL    R546420  24.958  26.856   3.909
 4058CHOL    R646421  24.888  26.788   4.366
 4058CHOL    C146422  24.927  26.543   4.624
 4058CHOL    C246423  24.889  26.743   5.017
 4059CHOL   ROH46424  12.167  34.927   6.919
 4059CHOL    R146425  11.994  34.804   6.544
 4059CHOL    R246426  12.229  35.054   6.600
 4059CHOL    R346427  12.048  34.849   6.122
 4059CHOL    R446428  12.304  35.045   6.300
 4059CHOL    R546429  12.350  34.833   6.600
 4059CHOL    R646430  12.324  34.830   6.133
 4059CHOL    C146431  12.274  35.045   5.852
 4059CHOL    C246432  12.151  35.049   5.433
 4060CHOL   ROH46433  23.504   0.266   3.252
 4060CHOL    R146434  23.197   0.318   3.551
 4060CHOL    R246435  23.535   0.253   3.599
 4060CHOL    R346436  23.149   0.380   3.971
 4060CHOL    R446437  23.508   0.352   3.892
 4060CHOL    R546438  23.509   0.499   3.552
 4060CHOL    R646439  23.360   0.559   3.992
 4060CHOL    C146440  23.361   0.403   4.314
 4060CHOL    C246441  23.187   0.131   4.621
 4061CHOL   ROH46442   4.584  35.780   3.942
 4061CHOL    R146443   4.638  35.976   4.322
 4061CHOL    R246444   4.609  35.635   4.258
 4061CHOL    R346445   4.738  35.889   4.729
 4061CHOL    R446446   4.734  35.576   4.535
 4061CHOL    R546447   4.846  35.704   4.207
 4061CHOL    R646448   4.936  35.706   4.665
 4061CHOL    C146449   4.815  35.581   4.977
 4061CHOL    C246450   4.777  35.592   5.383
 4062CHOL   ROH46451  18.224  29.782   7.356
 4062CHOL    R146452  18.453  29.709   6.998
 4062CHOL    R246453  18.110  29.668   7.047
 4062CHOL    R346454  18.400  29.636   6.580
 4062CHOL    R446455  18.070  29.671   6.740
 4062CHOL    R546456  18.155  29.913   7.006
 4062CHOL    R646457  18.196  29.821   6.550
 4062CHOL    C146458  18.113  29.577   6.302
 4062CHOL    C246459  18.197  29.534   5.896
 4063CHOL   ROH46460  35.920   7.869   3.813
 4063CHOL    R146461  36.086   8.011   4.185
 4063CHOL    R246462  35.758   7.917   4.118
 4063CHOL    R346463  35.992   8.040   4.601
 4063CHOL    R446464  35.709   7.886   4.423
 4063CHOL    R546465  35.893   7.707   4.156
 4063CHOL    R646466  35.876   7.789   4.616
 4063CHOL    C146467  35.694   7.972   4.864
 4063CHOL    C246468  35.821   7.939   5.266
 4064CHOL   ROH46469  33.517  32.903   6.201
 4064CHOL    R146470  33.269  32.554   6.144
 4064CHOL    R246471  33.243  32.865   5.989
 4064CHOL    R346472  32.972  32.399   5.878
 4064CHOL    R446473  33.071  32.735   5.766
 4064CHOL    R546474  33.426  32.735   5.873
 4064CHOL    R646475  33.096  32.490   5.648
 4064CHOL    C146476  32.751  32.500   5.556
 4064CHOL    C246477  32.442  32.216   5.388
 4065CHOL   ROH46478  31.480  26.589   6.861
 4065CHOL    R146479  31.320  26.596   6.460
 4065CHOL    R246480  31.654  26.603   6.559
 4065CHOL    R346481  31.442  26.550   6.053
 4065CHOL    R446482  31.736  26.515   6.273
 4065CHOL    R546483  31.574  26.364   6.570
 4065CHOL    R646484  31.614  26.338   6.104
 4065CHOL    C146485  31.771  26.497   5.825
 4065CHOL    C246486  31.806  26.704   5.439
 4066CHOL   ROH46487  25.390  16.333   4.037
 4066CHOL    R146488  25.594  16.453   4.397
 4066CHOL    R246489  25.259  16.367   4.359
 4066CHOL    R346490  25.541  16.462   4.822
 4066CHOL    R446491  25.240  16.321   4.665
 4066CHOL    R546492  25.394  16.154   4.372
 4066CHOL    R646493  25.423  16.212   4.835
 4066CHOL    C146494  25.269  16.383   5.109
 4066CHOL    C246495  25.484  16.362   5.507
 4067CHOL   ROH46496  17.718   9.770   3.955
 4067CHOL    R146497  17.950   9.855   4.309
 4067CHOL    R246498  17.613   9.769   4.287
 4067CHOL    R346499  17.930   9.819   4.734
 4067CHOL    R446500  17.618   9.692   4.587
 4067CHOL    R546501  17.749   9.557   4.268
 4067CHOL    R646502  17.814   9.568   4.731
 4067CHOL    C146503  17.681   9.709   5.032
 4067CHOL    C246504  17.832   9.551   5.431
 4068CHOL   ROH46505  12.950  27.312   6.812
 4068CHOL    R146506  13.212  27.603   6.631
 4068CHOL    R246507  13.069  27.322   6.484
 4068CHOL    R346508  13.352  27.730   6.247
 4068CHOL    R446509  13.124  27.444   6.205
 4068CHOL    R546510  12.895  27.504   6.489
 4068CHOL    R646511  13.106  27.704   6.123
 4068CHOL    C146512  13.333  27.635   5.856
 4068CHOL    C246513  13.740  27.735   5.730
 4069CHOL   ROH46514  33.588  15.081   3.596
 4069CHOL    R146515  33.663  14.715   3.811
 4069CHOL    R246516  33.656  15.040   3.935
 4069CHOL    R346517  33.690  14.564   4.211
 4069CHOL    R446518  33.621  14.925   4.221
 4069CHOL    R546519  33.418  14.959   3.913
 4069CHOL    R646520  33.475  14.710   4.305
 4069CHOL    C146521  33.681  14.684   4.596
 4069CHOL    C246522  33.704  14.466   4.968
 4070CHOL   ROH46523  36.006  15.332   5.640
 4070CHOL    R146524  35.625  15.481   5.776
 4070CHOL    R246525  35.691  15.279   5.501
 4070CHOL    R346526  35.205  15.422   5.716
 4070CHOL    R446527  35.392  15.196   5.494
 4070CHOL    R546528  35.690  15.132   5.706
 4070CHOL    R646529  35.222  15.147   5.702
 4070CHOL    C146530  34.944  15.216   5.489
 4070CHOL    C246531  34.568  15.373   5.333
 4071CHOL   ROH46532   9.923  26.240   6.284
 4071CHOL    R146533  10.270  26.170   6.038
 4071CHOL    R246534   9.953  26.273   5.938
 4071CHOL    R346535  10.415  26.239   5.641
 4071CHOL    R446536  10.073  26.373   5.671
 4071CHOL    R546537  10.076  26.474   6.027
 4071CHOL    R646538  10.312  26.496   5.624
 4071CHOL    C146539  10.301  26.387   5.284
 4071CHOL    C246540  10.532  26.479   4.919
 4072CHOL   ROH46541   0.378   5.951   3.754
 4072CHOL    R146542   0.456   5.924   4.178
 4072CHOL    R246543   0.440   6.209   3.980
 4072CHOL    R346544   0.477   6.169   4.527
 4072CHOL    R446545   0.401   6.380   4.236
 4072CHOL    R546546   0.204   6.139   4.034
 4072CHOL    R646547   0.257   6.323   4.461
 4072CHOL    C146548   0.458   6.554   4.646
 4072CHOL    C246549   0.758   6.625   4.985
 4073CHOL   ROH46550  24.017   4.188   6.890
 4073CHOL    R146551  24.286   4.025   6.595
 4073CHOL    R246552  23.997   4.211   6.543
 4073CHOL    R346553  24.377   4.051   6.178
 4073CHOL    R446554  24.094   4.273   6.255
 4073CHOL    R546555  24.183   4.371   6.601
 4073CHOL    R646556  24.346   4.325   6.165
 4073CHOL    C146557  24.250   4.223   5.837
 4073CHOL    C246558  24.304   4.069   5.419
 4074CHOL   ROH46559   7.458  13.395   7.168
 4074CHOL    R146560   7.241  13.435   6.797
 4074CHOL    R246561   7.585  13.437   6.846
 4074CHOL    R346562   7.302  13.425   6.374
 4074CHOL    R446563   7.624  13.376   6.544
 4074CHOL    R546564   7.508  13.197   6.847
 4074CHOL    R646565   7.479  13.213   6.381
 4074CHOL    C146566   7.593  13.397   6.097
 4074CHOL    C246567   7.480  13.485   5.707
 4075CHOL   ROH46568  27.061  15.588   7.301
 4075CHOL    R146569  27.301  15.407   6.992
 4075CHOL    R246570  26.979  15.537   6.966
 4075CHOL    R346571  27.314  15.361   6.567
 4075CHOL    R446572  27.014  15.553   6.659
 4075CHOL    R546573  27.142  15.730   6.958
 4075CHOL    R646574  27.235  15.620   6.513
 4075CHOL    C146575  27.103  15.442   6.233
 4075CHOL    C246576  27.120  15.197   5.902
 4076CHOL   ROH46577   9.423   3.616   6.859
 4076CHOL    R146578   9.566   3.847   6.524
 4076CHOL    R246579   9.471   3.513   6.529
 4076CHOL    R346580   9.596   3.831   6.098
 4076CHOL    R446581   9.440   3.521   6.221
 4076CHOL    R546582   9.262   3.654   6.517
 4076CHOL    R646583   9.345   3.721   6.062
 4076CHOL    C146584   9.527   3.586   5.785
 4076CHOL    C246585   9.610   3.685   5.365
 4077CHOL   ROH46586  19.637   6.723   6.957
 4077CHOL    R146587  19.527   7.017   6.661
 4077CHOL    R246588  19.728   6.737   6.620
 4077CHOL    R346589  19.534   7.082   6.239
 4077CHOL    R446590  19.685   6.756   6.314
 4077CHOL    R546591  19.488   6.662   6.612
 4077CHOL    R646592  19.461   6.823   6.174
 4077CHOL    C146593  19.663   6.916   5.895
 4077CHOL    C246594  19.605   7.144   5.514
 4078CHOL   ROH46595  32.209   8.385   3.767
 4078CHOL    R146596  32.015   8.539   4.121
 4078CHOL    R246597  32.338   8.414   4.090
 4078CHOL    R346598  32.104   8.667   4.519
 4078CHOL    R446599  32.414   8.556   4.355
 4078CHOL    R546600  32.338   8.652   4.005
 4078CHOL    R646601  32.336   8.800   4.449
 4078CHOL    C146602  32.408   8.694   4.782
 4078CHOL    C246603  32.273   8.985   5.046
 4079CHOL   ROH46604  24.094  22.994   3.692
 4079CHOL    R146605  24.016  23.118   4.097
 4079CHOL    R246606  24.172  22.827   3.988
 4079CHOL    R346607  24.122  23.022   4.500
 4079CHOL    R446608  24.293  22.790   4.271
 4079CHOL    R546609  24.341  23.014   3.980
 4079CHOL    R646610  24.389  22.978   4.444
 4079CHOL    C146611  24.332  22.754   4.717
 4079CHOL    C246612  24.326  22.713   5.159
 4080CHOL   ROH46613  33.489  28.630   4.256
 4080CHOL    R146614  33.364  28.477   4.639
 4080CHOL    R246615  33.669  28.432   4.479
 4080CHOL    R346616  33.522  28.294   4.992
 4080CHOL    R446617  33.795  28.351   4.751
 4080CHOL    R546618  33.671  28.660   4.588
 4080CHOL    R646619  33.748  28.453   5.000
 4080CHOL    C146620  33.865  28.148   5.146
 4080CHOL    C246621  33.865  27.796   5.447
 4081CHOL   ROH46622  26.341  32.338   6.769
 4081CHOL    R146623  26.334  32.287   6.340
 4081CHOL    R246624  26.070  32.368   6.551
 4081CHOL    R346625  26.084  32.361   6.001
 4081CHOL    R446626  25.911  32.473   6.306
 4081CHOL    R546627  26.203  32.578   6.508
 4081CHOL    R646628  26.001  32.610   6.088
 4081CHOL    C146629  25.718  32.496   5.901
 4081CHOL    C246630  25.626  32.207   5.588
 4082CHOL   ROH46631  13.670  31.633   4.100
 4082CHOL    R146632  13.482  31.591   4.487
 4082CHOL    R246633  13.747  31.407   4.355
 4082CHOL    R346634  13.542  31.402   4.866
 4082CHOL    R446635  13.821  31.315   4.641
 4082CHOL    R546636  13.839  31.625   4.441
 4082CHOL    R646637  13.814  31.455   4.875
 4082CHOL    C146638  13.790  31.148   5.057
 4082CHOL    C246639  13.777  31.059   5.483
 4083CHOL   ROH46640   8.777   6.367   6.761
 4083CHOL    R146641   9.031   6.301   6.419
 4083CHOL    R246642   8.804   6.559   6.471
 4083CHOL    R346643   9.175   6.500   6.069
 4083CHOL    R446644   8.947   6.724   6.251
 4083CHOL    R546645   9.015   6.614   6.598
 4083CHOL    R646646   9.213   6.744   6.195
 4083CHOL    C146647   9.134   6.843   5.860
 4083CHOL    C246648   9.217   6.892   5.426
 4084CHOL   ROH46649   6.255  26.715   3.600
 4084CHOL    R146650   6.197  26.323   3.770
 4084CHOL    R246651   6.492  26.507   3.748
 4084CHOL    R346652   6.396  26.035   4.015
 4084CHOL    R446653   6.615  26.327   3.968
 4084CHOL    R546654   6.360  26.594   3.944
 4084CHOL    R646655   6.498  26.222   4.192
 4084CHOL    C146656   6.748  25.966   4.201
 4084CHOL    C246657   6.895  25.570   4.323
 4085CHOL   ROH46658  20.764   9.826   7.064
 4085CHOL    R146659  20.729   9.409   6.959
 4085CHOL    R246660  20.679   9.687   6.756
 4085CHOL    R346661  20.696   9.154   6.617
 4085CHOL    R446662  20.710   9.505   6.507
 4085CHOL    R546663  20.927   9.646   6.772
 4085CHOL    R646664  20.880   9.295   6.466
 4085CHOL    C146665  20.659   9.167   6.216
 4085CHOL    C246666  20.458   8.888   5.968
 4086CHOL   ROH46667   7.311   1.191   3.930
 4086CHOL    R146668   7.376   1.572   4.122
 4086CHOL    R246669   7.250   1.280   4.262
 4086CHOL    R346670   7.394   1.749   4.511
 4086CHOL    R446671   7.316   1.391   4.544
 4086CHOL    R546672   7.501   1.259   4.252
 4086CHOL    R646673   7.530   1.537   4.626
 4086CHOL    C146674   7.339   1.662   4.901
 4086CHOL    C246675   7.462   1.915   5.219
 4087CHOL   ROH46676   8.924  10.730   6.720
 4087CHOL    R146677   8.627  10.940   6.488
 4087CHOL    R246678   8.954  10.861   6.398
 4087CHOL    R346679   8.551  11.073   6.088
 4087CHOL    R446680   8.879  10.906   6.100
 4087CHOL    R546681   8.811  10.655   6.364
 4087CHOL    R646682   8.648  10.843   5.969
 4087CHOL    C146683   8.721  11.092   5.723
 4087CHOL    C246684   8.551  11.398   5.455
 4088CHOL   ROH46685  13.337  17.364   7.236
 4088CHOL    R146686  13.035  17.493   6.956
 4088CHOL    R246687  13.368  17.412   6.892
 4088CHOL    R346688  12.962  17.518   6.536
 4088CHOL    R446689  13.298  17.378   6.592
 4088CHOL    R546690  13.238  17.197   6.909
 4088CHOL    R646691  13.074  17.272   6.478
 4088CHOL    C146692  13.140  17.457   6.179
 4088CHOL    C246693  12.878  17.370   5.853
 4089CHOL   ROH46694   8.445  19.456   7.057
 4089CHOL    R146695   8.555  19.553   6.651
 4089CHOL    R246696   8.278  19.373   6.761
 4089CHOL    R346697   8.395  19.553   6.254
 4089CHOL    R446698   8.142  19.423   6.488
 4089CHOL    R546699   8.229  19.619   6.790
 4089CHOL    R646700   8.146  19.646   6.330
 4089CHOL    C146701   8.068  19.445   6.045
 4089CHOL    C246702   8.103  19.411   5.633
 4090CHOL   ROH46703  20.015   8.451   4.185
 4090CHOL    R146704  19.842   8.323   4.559
 4090CHOL    R246705  20.075   8.576   4.505
 4090CHOL    R346706  19.804   8.447   4.966
 4090CHOL    R446707  20.005   8.695   4.782
 4090CHOL    R546708  19.847   8.667   4.448
 4090CHOL    R646709  19.762   8.713   4.906
 4090CHOL    C146710  19.926   8.733   5.223
 4090CHOL    C246711  20.123   8.724   5.620
 4091CHOL   ROH46712   2.391   9.677   4.575
 4091CHOL    R146713   2.310   9.330   4.819
 4091CHOL    R246714   2.526   9.595   4.886
 4091CHOL    R346715   2.371   9.182   5.215
 4091CHOL    R446716   2.524   9.515   5.186
 4091CHOL    R546717   2.292   9.669   4.942
 4091CHOL    R646718   2.317   9.424   5.339
 4091CHOL    C146719   2.552   9.274   5.564
 4091CHOL    C246720   2.657   9.010   5.880
 4092CHOL   ROH46721   2.717  16.925   7.000
 4092CHOL    R146722   2.465  17.016   6.662
 4092CHOL    R246723   2.805  16.940   6.663
 4092CHOL    R346724   2.463  16.997   6.235
 4092CHOL    R446725   2.786  16.874   6.361
 4092CHOL    R546726   2.676  16.724   6.681
 4092CHOL    R646727   2.586  16.750   6.223
 4092CHOL    C146728   2.699  16.905   5.921
 4092CHOL    C246729   2.609  17.007   5.496
 4093CHOL   ROH46730   7.530  29.063   6.417
 4093CHOL    R146731   7.362  28.840   6.088
 4093CHOL    R246732   7.395  29.185   6.120
 4093CHOL    R346733   7.239  28.891   5.682
 4093CHOL    R446734   7.360  29.213   5.813
 4093CHOL    R546735   7.618  29.091   6.048
 4093CHOL    R646736   7.453  29.052   5.613
 4093CHOL    C146737   7.195  29.173   5.397
 4093CHOL    C246738   6.937  29.067   5.057
 4094CHOL   ROH46739  28.292  10.484   6.796
 4094CHOL    R146740  28.066  10.614   6.453
 4094CHOL    R246741  28.364  10.434   6.459
 4094CHOL    R346742  28.038  10.551   6.031
 4094CHOL    R446743  28.312  10.346   6.166
 4094CHOL    R546744  28.175  10.273   6.503
 4094CHOL    R646745  28.077  10.278   6.046
 4094CHOL    C146746  28.219  10.357   5.727
 4094CHOL    C246747  28.087  10.395   5.308
 4095CHOL   ROH46748  31.180   1.737   7.002
 4095CHOL    R146749  30.910   1.745   6.666
 4095CHOL    R246750  31.193   1.940   6.719
 4095CHOL    R346751  30.878   1.900   6.269
 4095CHOL    R446752  31.198   2.007   6.416
 4095CHOL    R546753  31.268   1.715   6.633
 4095CHOL    R646754  31.142   1.847   6.203
 4095CHOL    C146755  31.072   2.136   6.005
 4095CHOL    C246756  30.973   2.357   5.618
 4096CHOL   ROH46757   7.926  28.716   3.618
 4096CHOL    R146758   7.799  29.054   3.854
 4096CHOL    R246759   7.864  28.729   3.961
 4096CHOL    R346760   7.762  29.180   4.261
 4096CHOL    R446761   7.891  28.835   4.252
 4096CHOL    R546762   8.085  28.849   3.937
 4096CHOL    R646763   8.002  29.068   4.342
 4096CHOL    C146764   7.805  29.046   4.639
 4096CHOL    C246765   7.474  29.154   4.870
 4097CHOL   ROH46766  32.123  26.436   7.107
 4097CHOL    R146767  32.159  26.216   6.738
 4097CHOL    R246768  32.106  26.557   6.780
 4097CHOL    R346769  32.212  26.278   6.318
 4097CHOL    R446770  32.199  26.604   6.488
 4097CHOL    R546771  32.352  26.511   6.813
 4097CHOL    R646772  32.398  26.481   6.349
 4097CHOL    C146773  32.238  26.571   6.042
 4097CHOL    C246774  32.244  26.490   5.642
 4098CHOL   ROH46775  26.342   8.573   4.119
 4098CHOL    R146776  26.209   8.587   4.530
 4098CHOL    R246777  26.514   8.473   4.406
 4098CHOL    R346778  26.360   8.551   4.928
 4098CHOL    R446779  26.635   8.501   4.690
 4098CHOL    R546780  26.524   8.725   4.417
 4098CHOL    R646781  26.592   8.693   4.878
 4098CHOL    C146782  26.696   8.466   5.134
 4098CHOL    C246783  26.637   8.337   5.547
 4099CHOL   ROH46784  31.677  15.516   7.169
 4099CHOL    R146785  31.333  15.552   6.911
 4099CHOL    R246786  31.664  15.495   6.821
 4099CHOL    R346787  31.213  15.482   6.506
 4099CHOL    R446788  31.568  15.393   6.545
 4099CHOL    R546789  31.565  15.276   6.896
 4099CHOL    R646790  31.349  15.242   6.483
 4099CHOL    C146791  31.358  15.367   6.148
 4099CHOL    C246792  31.059  15.491   5.889
 4100CHOL   ROH46793  27.378  35.531   6.899
 4100CHOL    R146794  27.452  35.776   6.552
 4100CHOL    R246795  27.220  35.519   6.588
 4100CHOL    R346796  27.279  35.876   6.173
 4100CHOL    R446797  27.065  35.629   6.343
 4100CHOL    R546798  27.124  35.727   6.695
 4100CHOL    R646799  27.019  35.888   6.269
 4100CHOL    C146800  26.971  35.781   5.931
 4100CHOL    C246801  26.915  35.903   5.541
 4101CHOL   ROH46802  35.942  35.455   6.794
 4101CHOL    R146803  35.775  35.668   6.458
 4101CHOL    R246804  36.072  35.487   6.472
 4101CHOL    R346805  35.821  35.710   6.035
 4101CHOL    R446806  36.073  35.473   6.162
 4101CHOL    R546807  35.882  35.324   6.443
 4101CHOL    R646808  35.864  35.440   5.990
 4101CHOL    C146809  36.056  35.591   5.729
 4101CHOL    C246810  36.064  35.863   5.430
 4102CHOL   ROH46811  32.365   3.887   6.638
 4102CHOL    R146812  32.191   3.628   6.340
 4102CHOL    R246813  32.304   3.954   6.301
 4102CHOL    R346814  32.138   3.597   5.917
 4102CHOL    R446815  32.316   3.909   5.995
 4102CHOL    R546816  32.504   3.801   6.295
 4102CHOL    R646817  32.392   3.687   5.855
 4102CHOL    C146818  32.202   3.800   5.574
 4102CHOL    C246819  31.997   3.702   5.180
 4103CHOL   ROH46820  28.374  12.263   5.083
 4103CHOL    R146821  28.270  12.597   5.335
 4103CHOL    R246822  28.443  12.308   5.421
 4103CHOL    R346823  28.359  12.764   5.718
 4103CHOL    R446824  28.551  12.453   5.673
 4103CHOL    R546825  28.605  12.465   5.307
 4103CHOL    R646826  28.631  12.712   5.703
 4103CHOL    C146827  28.569  12.690   6.055
 4103CHOL    C246828  28.500  12.846   6.460
 4104CHOL   ROH46829   2.069  33.808   7.027
 4104CHOL    R146830   2.086  33.998   6.640
 4104CHOL    R246831   2.243  33.705   6.743
 4104CHOL    R346832   2.209  33.921   6.238
 4104CHOL    R446833   2.282  33.626   6.446
 4104CHOL    R546834   2.003  33.649   6.688
 4104CHOL    R646835   2.114  33.661   6.234
 4104CHOL    C146836   2.393  33.643   6.011
 4104CHOL    C246837   2.597  33.632   5.626
 4105CHOL   ROH46838   3.836  28.569   7.223
 4105CHOL    R146839   3.633  28.634   6.848
 4105CHOL    R246840   3.957  28.725   6.936
 4105CHOL    R346841   3.712  28.748   6.444
 4105CHOL    R446842   4.026  28.754   6.635
 4105CHOL    R546843   3.959  28.480   6.875
 4105CHOL    R646844   3.946  28.601   6.424
 4105CHOL    C146845   4.009  28.876   6.203
 4105CHOL    C246846   3.959  28.845   5.770
 4106CHOL   ROH46847  19.847  19.074   7.407
 4106CHOL    R146848  19.862  19.219   7.002
 4106CHOL    R246849  19.956  18.906   7.121
 4106CHOL    R346850  19.915  19.080   6.601
 4106CHOL    R446851  19.939  18.795   6.833
 4106CHOL    R546852  19.705  18.908   7.096
 4106CHOL    R646853  19.760  18.853   6.635
 4106CHOL    C146854  19.997  18.746   6.390
 4106CHOL    C246855  19.811  18.774   5.983
 4107CHOL   ROH46856  16.228   8.571   3.976
 4107CHOL    R146857  16.099   8.208   4.171
 4107CHOL    R246858  16.170   8.516   4.316
 4107CHOL    R346859  15.948   8.068   4.546
 4107CHOL    R446860  16.011   8.430   4.567
 4107CHOL    R546861  15.938   8.528   4.218
 4107CHOL    R646862  15.781   8.285   4.585
 4107CHOL    C146863  15.865   8.193   4.920
 4107CHOL    C246864  15.615   7.978   5.193
 4108CHOL   ROH46865   2.668  23.042   7.323
 4108CHOL    R146866   2.302  23.171   7.135
 4108CHOL    R246867   2.608  23.101   6.984
 4108CHOL    R346868   2.122  23.207   6.748
 4108CHOL    R446869   2.463  23.074   6.712
 4108CHOL    R546870   2.490  22.882   7.027
 4108CHOL    R646871   2.219  22.966   6.655
 4108CHOL    C146872   2.202  23.161   6.356
 4108CHOL    C246873   1.998  23.354   6.011
 4109CHOL   ROH46874  27.626   9.123   7.253
 4109CHOL    R146875  27.623   8.893   6.888
 4109CHOL    R246876  27.526   9.224   6.934
 4109CHOL    R346877  27.584   8.942   6.465
 4109CHOL    R446878  27.552   9.270   6.629
 4109CHOL    R546879  27.778   9.218   6.918
 4109CHOL    R646880  27.737   9.172   6.454
 4109CHOL    C146881  27.508   9.221   6.184
 4109CHOL    C246882  27.295   8.898   5.990
 4110CHOL   ROH46883   5.057  16.324   4.828
 4110CHOL    R146884   4.795  16.061   5.047
 4110CHOL    R246885   5.135  16.021   4.983
 4110CHOL    R346886   4.807  15.725   5.310
 4110CHOL    R446887   5.150  15.816   5.214
 4110CHOL    R546888   5.110  16.182   5.176
 4110CHOL    R646889   5.023  15.817   5.456
 4110CHOL    C146890   5.063  15.463   5.478
 4110CHOL    C246891   4.923  15.164   5.730
 4111CHOL   ROH46892  25.259  30.972   6.741
 4111CHOL    R146893  25.163  31.171   6.371
 4111CHOL    R246894  25.145  30.831   6.443
 4111CHOL    R346895  24.967  31.100   5.997
 4111CHOL    R446896  24.957  30.793   6.200
 4111CHOL    R546897  24.939  30.942   6.538
 4111CHOL    R646898  24.758  30.956   6.107
 4111CHOL    C146899  24.789  30.808   5.783
 4111CHOL    C246900  24.838  30.852   5.329
 4112CHOL   ROH46901  21.512  34.606   3.888
 4112CHOL    R146902  21.614  34.871   4.213
 4112CHOL    R246903  21.374  34.618   4.208
 4112CHOL    R346904  21.552  34.918   4.634
 4112CHOL    R446905  21.373  34.618   4.518
 4112CHOL    R546906  21.600  34.511   4.245
 4112CHOL    R646907  21.581  34.649   4.692
 4112CHOL    C146908  21.353  34.757   4.945
 4112CHOL    C246909  21.179  35.022   5.271
 4113CHOL   ROH46910   3.200  25.900   7.287
 4113CHOL    R146911   3.103  25.528   7.091
 4113CHOL    R246912   3.023  25.852   6.991
 4113CHOL    R346913   2.958  25.378   6.718
 4113CHOL    R446914   2.970  25.746   6.705
 4113CHOL    R546915   3.262  25.807   6.924
 4113CHOL    R646916   3.104  25.554   6.564
 4113CHOL    C146917   2.814  25.500   6.362
 4113CHOL    C246918   2.471  25.422   6.105
 4114CHOL   ROH46919  25.401   8.627   7.111
 4114CHOL    R146920  25.332   8.418   6.739
 4114CHOL    R246921  25.287   8.756   6.808
 4114CHOL    R346922  25.261   8.493   6.324
 4114CHOL    R446923  25.290   8.814   6.503
 4114CHOL    R546924  25.532   8.717   6.766
 4114CHOL    R646925  25.443   8.701   6.307
 4114CHOL    C146926  25.199   8.795   6.064
 4114CHOL    C246927  25.090   8.795   5.648
 4115CHOL   ROH46928  35.152  10.264   7.268
 4115CHOL    R146929  35.219  10.043   6.904
 4115CHOL    R246930  35.096  10.366   6.939
 4115CHOL    R346931  35.242  10.099   6.480
 4115CHOL    R446932  35.166  10.421   6.642
 4115CHOL    R546933  35.347  10.375   6.962
 4115CHOL    R646934  35.381  10.338   6.497
 4115CHOL    C146935  35.194  10.380   6.195
 4115CHOL    C246936  35.314  10.210   5.854
 4116CHOL   ROH46937  24.525   6.981   7.150
 4116CHOL    R146938  24.451   6.919   6.730
 4116CHOL    R246939  24.583   7.201   6.886
 4116CHOL    R346940  24.541   7.089   6.348
 4116CHOL    R446941  24.695   7.294   6.612
 4116CHOL    R546942  24.768   7.031   6.862
 4116CHOL    R646943  24.805   7.147   6.410
 4116CHOL    C146944  24.724   7.406   6.178
 4116CHOL    C246945  24.683   7.562   5.763
 4117CHOL   ROH46946   1.618  22.823   3.985
 4117CHOL    R146947   1.455  22.984   4.350
 4117CHOL    R246948   1.699  22.738   4.313
 4117CHOL    R346949   1.529  22.992   4.772
 4117CHOL    R446950   1.786  22.786   4.607
 4117CHOL    R546951   1.809  22.963   4.282
 4117CHOL    R646952   1.803  23.021   4.746
 4117CHOL    C146953   1.775  22.839   5.053
 4117CHOL    C246954   1.714  22.740   5.481
 4118CHOL   ROH46955  16.741  24.057   7.067
 4118CHOL    R146956  16.638  23.728   6.808
 4118CHOL    R246957  16.623  24.069   6.739
 4118CHOL    R346958  16.552  23.643   6.398
 4118CHOL    R446959  16.616  24.003   6.436
 4118CHOL    R546960  16.862  23.994   6.712
 4118CHOL    R646961  16.750  23.809   6.298
 4118CHOL    C146962  16.502  23.823   6.040
 4118CHOL    C246963  16.237  23.478   5.892
 4119CHOL   ROH46964  13.598   4.060   3.632
 4119CHOL    R146965  13.635   4.172   4.047
 4119CHOL    R246966  13.427   3.931   3.907
 4119CHOL    R346967  13.526   4.038   4.438
 4119CHOL    R446968  13.395   3.803   4.188
 4119CHOL    R546969  13.658   3.832   3.930
 4119CHOL    R646970  13.579   3.771   4.386
 4119CHOL    C146971  13.316   3.751   4.627
 4119CHOL    C246972  13.370   3.693   5.049
 4120CHOL   ROH46973   6.827   4.003   6.734
 4120CHOL    R146974   7.105   4.117   6.424
 4120CHOL    R246975   6.844   3.886   6.406
 4120CHOL    R346976   7.163   4.082   6.001
 4120CHOL    R446977   6.854   3.906   6.096
 4120CHOL    R546978   6.746   4.117   6.381
 4120CHOL    R646979   6.896   4.124   5.938
 4120CHOL    C146980   7.004   3.910   5.673
 4120CHOL    C246981   7.280   3.781   5.327
 4121CHOL   ROH46982  14.101  25.653   6.823
 4121CHOL    R146983  14.218  25.666   6.408
 4121CHOL    R246984  13.994  25.874   6.575
 4121CHOL    R346985  14.195  25.920   6.065
 4121CHOL    R446986  14.023  26.081   6.347
 4121CHOL    R546987  14.228  25.953   6.627
 4121CHOL    R646988  14.245  26.153   6.205
 4121CHOL    C146989  14.037  26.269   5.939
 4121CHOL    C246990  13.936  26.454   5.560
 4122CHOL   ROH46991  25.949  10.669   7.365
 4122CHOL    R146992  25.707  10.447   7.084
 4122CHOL    R246993  25.940  10.697   7.017
 4122CHOL    R346994  25.673  10.368   6.665
 4122CHOL    R446995  25.954  10.600   6.723
 4122CHOL    R546996  26.066  10.481   7.056
 4122CHOL    R646997  25.946  10.345   6.624
 4122CHOL    C146998  25.833  10.472   6.310
 4122CHOL    C246999  25.842  10.333   5.875
 4123CHOL   ROH47000  17.531  25.291   3.973
 4123CHOL    R147001  17.474  24.913   4.173
 4123CHOL    R247002  17.649  25.192   4.286
 4123CHOL    R347003  17.520  24.730   4.557
 4123CHOL    R447004  17.632  25.081   4.575
 4123CHOL    R547005  17.403  25.232   4.326
 4123CHOL    R647006  17.426  24.949   4.698
 4123CHOL    C147007  17.657  24.805   4.929
 4123CHOL    C247008  17.621  24.504   5.267
 4124CHOL   ROH47009  14.874  27.479   6.861
 4124CHOL    R147010  14.951  27.133   6.614
 4124CHOL    R247011  14.961  27.469   6.523
 4124CHOL    R347012  15.116  27.027   6.235
 4124CHOL    R447013  15.130  27.392   6.274
 4124CHOL    R547014  15.177  27.414   6.641
 4124CHOL    R647015  15.327  27.205   6.250
 4124CHOL    C147016  15.268  27.189   5.898
 4124CHOL    C247017  15.238  26.970   5.519
 4125CHOL   ROH47018  14.610   4.690   5.273
 4125CHOL    R147019  14.429   4.943   5.573
 4125CHOL    R247020  14.762   4.934   5.472
 4125CHOL    R347021  14.511   5.291   5.807
 4125CHOL    R447022  14.803   5.214   5.597
 4125CHOL    R547023  14.632   5.069   5.302
 4125CHOL    R647024  14.634   5.429   5.601
 4125CHOL    C147025  14.804   5.556   5.889
 4125CHOL    C247026  14.746   5.916   6.128
 4126CHOL   ROH47027  25.785  14.814   7.341
 4126CHOL    R147028  25.987  14.780   6.961
 4126CHOL    R247029  25.651  14.848   7.021
 4126CHOL    R347030  25.928  14.863   6.546
 4126CHOL    R447031  25.626  14.959   6.733
 4126CHOL    R547032  25.780  15.062   7.053
 4126CHOL    R647033  25.804  15.107   6.588
 4126CHOL    C147034  25.650  14.995   6.285
 4126CHOL    C247035  25.858  15.115   5.926
 4127CHOL   ROH47036   2.974  11.848   7.110
 4127CHOL    R147037   3.257  11.692   6.824
 4127CHOL    R247038   2.957  11.858   6.762
 4127CHOL    R347039   3.352  11.711   6.408
 4127CHOL    R447040   3.054  11.917   6.474
 4127CHOL    R547041   3.132  12.031   6.817
 4127CHOL    R647042   3.304  11.983   6.385
 4127CHOL    C147043   3.219  11.864   6.059
 4127CHOL    C247044   3.500  12.061   5.768
 4128CHOL   ROH47045  11.730  15.960   3.834
 4128CHOL    R147046  12.028  15.928   4.144
 4128CHOL    R247047  11.689  16.000   4.178
 4128CHOL    R347048  12.063  15.897   4.569
 4128CHOL    R447049  11.707  15.923   4.478
 4128CHOL    R547050  11.714  15.750   4.151
 4128CHOL    R647051  11.850  15.723   4.597
 4128CHOL    C147052  11.842  15.903   4.906
 4128CHOL    C247053  11.889  15.831   5.333
 4129CHOL   ROH47054  31.422  12.152   4.538
 4129CHOL    R147055  31.585  12.027   4.918
 4129CHOL    R247056  31.597  11.859   4.613
 4129CHOL    R347057  31.852  11.739   5.086
 4129CHOL    R447058  31.831  11.687   4.722
 4129CHOL    R547059  31.777  12.037   4.612
 4129CHOL    R647060  32.039  11.760   4.883
 4129CHOL    C147061  32.077  11.419   4.985
 4129CHOL    C247062  32.216  11.123   5.270
 4130CHOL   ROH47063  11.616  26.332   3.229
 4130CHOL    R147064  11.376  26.135   3.527
 4130CHOL    R247065  11.668  26.318   3.573
 4130CHOL    R347066  11.323  26.115   3.951
 4130CHOL    R447067  11.597  26.348   3.873
 4130CHOL    R547068  11.477  26.481   3.549
 4130CHOL    R647069  11.354  26.387   3.991
 4130CHOL    C147070  11.480  26.252   4.296
 4130CHOL    C247071  11.289  26.288   4.683
 4131CHOL   ROH47072   6.937  34.628   3.709
 4131CHOL    R147073   6.986  35.023   3.873
 4131CHOL    R247074   6.953  34.722   4.044
 4131CHOL    R347075   7.076  35.221   4.242
 4131CHOL    R447076   7.072  34.857   4.297
 4131CHOL    R547077   7.192  34.742   3.966
 4131CHOL    R647078   7.273  35.041   4.316
 4131CHOL    C147079   7.143  35.147   4.632
 4131CHOL    C247080   7.200  35.469   4.895
 4132CHOL   ROH47081  35.992  12.599   4.305
 4132CHOL    R147082  36.013  12.922   4.590
 4132CHOL    R247083  36.008  12.580   4.653
 4132CHOL    R347084  36.095  12.995   5.004
 4132CHOL    R447085  36.120  12.634   4.936
 4132CHOL    R547086  36.243  12.643   4.587
 4132CHOL    R647087  36.307  12.816   5.017
 4132CHOL    C147088  36.175  12.803   5.349
 4132CHOL    C247089  36.234  13.074   5.666
 4133CHOL   ROH47090  25.195  22.744   3.675
 4133CHOL    R147091  24.867  22.959   3.857
 4133CHOL    R247092  25.111  22.766   4.013
 4133CHOL    R347093  24.729  23.092   4.239
 4133CHOL    R447094  25.044  22.906   4.281
 4133CHOL    R547095  25.211  22.993   3.962
 4133CHOL    R647096  24.979  23.167   4.329
 4133CHOL    C147097  24.816  23.071   4.632
 4133CHOL    C247098  24.559  23.143   4.970
 4134CHOL   ROH47099  16.448   0.722   6.628
 4134CHOL    R147100  16.348   0.525   6.257
 4134CHOL    R247101  16.431   0.859   6.307
 4134CHOL    R347102  16.362   0.586   5.834
 4134CHOL    R447103  16.494   0.884   6.005
 4134CHOL    R547104  16.645   0.725   6.303
 4134CHOL    R647105  16.612   0.705   5.837
 4134CHOL    C147106  16.456   0.864   5.558
 4134CHOL    C247107  16.435   0.941   5.134
 4135CHOL   ROH47108  13.802  20.860   7.126
 4135CHOL    R147109  14.188  20.718   6.998
 4135CHOL    R247110  13.949  20.889   6.812
 4135CHOL    R347111  14.466  20.758   6.676
 4135CHOL    R447112  14.169  20.963   6.606
 4135CHOL    R547113  14.075  21.058   6.951
 4135CHOL    R647114  14.430  21.031   6.648
 4135CHOL    C147115  14.509  20.931   6.314
 4135CHOL    C247116  14.675  20.765   5.931
 4136CHOL   ROH47117   9.861  11.381   3.812
 4136CHOL    R147118  10.072  11.257   4.167
 4136CHOL    R247119   9.730  11.243   4.105
 4136CHOL    R347120  10.014  11.033   4.527
 4136CHOL    R447121   9.701  11.037   4.334
 4136CHOL    R547122   9.838  11.046   3.991
 4136CHOL    R647123   9.867  10.832   4.405
 4136CHOL    C147124   9.730  10.837   4.736
 4136CHOL    C247125   9.729  10.575   5.084
 4137CHOL   ROH47126  25.700  21.313   7.188
 4137CHOL    R147127  25.553  21.148   6.817
 4137CHOL    R247128  25.629  21.480   6.890
 4137CHOL    R347129  25.500  21.252   6.405
 4137CHOL    R447130  25.643  21.539   6.586
 4137CHOL    R547131  25.845  21.360   6.840
 4137CHOL    R647132  25.742  21.384   6.384
 4137CHOL    C147133  25.538  21.561   6.149
 4137CHOL    C247134  25.499  21.632   5.735
 4138CHOL   ROH47135  13.028  25.525   6.550
 4138CHOL    R147136  13.356  25.473   6.275
 4138CHOL    R247137  13.029  25.569   6.204
 4138CHOL    R347138  13.467  25.559   5.871
 4138CHOL    R447139  13.125  25.681   5.932
 4138CHOL    R547140  13.153  25.771   6.290
 4138CHOL    R647141  13.357  25.813   5.871
 4138CHOL    C147142  13.321  25.714   5.529
 4138CHOL    C247143  13.503  25.602   5.145
 4139CHOL   ROH47144   2.081  23.514   7.653
 4139CHOL    R147145   2.103  23.808   7.337
 4139CHOL    R247146   2.064  23.463   7.308
 4139CHOL    R347147   2.033  23.850   6.918
 4139CHOL    R447148   1.960  23.503   7.019
 4139CHOL    R547149   1.839  23.563   7.363
 4139CHOL    R647150   1.800  23.700   6.918
 4139CHOL    C147151   1.929  23.637   6.591
 4139CHOL    C247152   1.987  23.853   6.209
 4140CHOL   ROH47153   7.259   3.296   6.776
 4140CHOL    R147154   7.393   3.247   6.369
 4140CHOL    R247155   7.108   3.114   6.519
 4140CHOL    R347156   7.255   3.108   5.988
 4140CHOL    R447157   6.987   3.065   6.238
 4140CHOL    R547158   7.059   3.354   6.458
 4140CHOL    R647159   7.003   3.220   6.013
 4140CHOL    C147160   6.938   2.932   5.811
 4140CHOL    C247161   7.048   2.870   5.409
 4141CHOL   ROH47162   2.231   5.984   7.050
 4141CHOL    R147163   2.195   6.130   6.646
 4141CHOL    R247164   2.485   6.042   6.817
 4141CHOL    R347165   2.422   6.170   6.286
 4141CHOL    R447166   2.633   6.019   6.547
 4141CHOL    R547167   2.376   5.830   6.734
 4141CHOL    R647168   2.544   5.923   6.307
 4141CHOL    C147169   2.793   6.115   6.137
 4141CHOL    C247170   2.886   6.166   5.713
 4142CHOL   ROH47171   2.491   7.122   7.154
 4142CHOL    R147172   2.223   7.032   6.828
 4142CHOL    R247173   2.533   7.189   6.814
 4142CHOL    R347174   2.214   7.015   6.401
 4142CHOL    R447175   2.548   7.126   6.511
 4142CHOL    R547176   2.573   6.940   6.831
 4142CHOL    R647177   2.466   6.902   6.377
 4142CHOL    C147178   2.441   7.094   6.076
 4142CHOL    C247179   2.311   7.091   5.660
 4143CHOL   ROH47180  12.519  14.836   6.842
 4143CHOL    R147181  12.170  14.631   6.691
 4143CHOL    R247182  12.440  14.758   6.511
 4143CHOL    R347183  12.024  14.443   6.336
 4143CHOL    R447184  12.361  14.577   6.272
 4143CHOL    R547185  12.509  14.536   6.609
 4143CHOL    R647186  12.264  14.322   6.273
 4143CHOL    C147187  12.121  14.376   5.950
 4143CHOL    C247188  11.837  14.340   5.620
 4144CHOL   ROH47189  27.009  34.234   6.762
 4144CHOL    R147190  26.888  34.017   6.409
 4144CHOL    R247191  26.888  34.361   6.460
 4144CHOL    R347192  26.795  34.080   5.996
 4144CHOL    R447193  26.875  34.403   6.154
 4144CHOL    R547194  27.124  34.291   6.404
 4144CHOL    R647195  26.998  34.263   5.954
 4144CHOL    C147196  26.749  34.374   5.723
 4144CHOL    C247197  26.507  34.404   5.364
 4145CHOL   ROH47198  20.966  27.484   3.829
 4145CHOL    R147199  20.848  27.177   4.108
 4145CHOL    R247200  20.863  27.520   4.160
 4145CHOL    R347201  20.656  27.129   4.488
 4145CHOL    R447202  20.677  27.487   4.406
 4145CHOL    R547203  20.648  27.469   4.038
 4145CHOL    R647204  20.463  27.321   4.440
 4145CHOL    C147205  20.505  27.341   4.795
 4145CHOL    C247206  20.358  27.257   5.202
 4146CHOL   ROH47207  22.399   0.334   7.036
 4146CHOL    R147208  22.356   0.567   6.676
 4146CHOL    R247209  22.463   0.238   6.707
 4146CHOL    R347210  22.347   0.523   6.250
 4146CHOL    R447211  22.403   0.194   6.406
 4146CHOL    R547212  22.211   0.240   6.720
 4146CHOL    R647213  22.197   0.290   6.255
 4146CHOL    C147214  22.394   0.247   5.960
 4146CHOL    C247215  22.393   0.338   5.549
 4147CHOL   ROH47216  13.512  20.948   3.744
 4147CHOL    R147217  13.284  20.693   4.007
 4147CHOL    R247218  13.451  20.988   4.085
 4147CHOL    R347219  13.108  20.690   4.397
 4147CHOL    R447220  13.281  21.011   4.343
 4147CHOL    R547221  13.231  21.049   3.978
 4147CHOL    R647222  13.017  20.951   4.383
 4147CHOL    C147223  13.080  20.912   4.733
 4147CHOL    C247224  12.757  20.915   5.043
 4148CHOL   ROH47225  31.054  30.640   6.935
 4148CHOL    R147226  31.136  30.851   6.567
 4148CHOL    R247227  31.204  30.519   6.644
 4148CHOL    R347228  31.248  30.779   6.161
 4148CHOL    R447229  31.231  30.458   6.341
 4148CHOL    R547230  30.960  30.536   6.582
 4148CHOL    R647231  31.085  30.556   6.132
 4148CHOL    C147232  31.356  30.482   5.911
 4148CHOL    C247233  31.157  30.669   5.555
 4149CHOL   ROH47234  25.777  25.724   4.129
 4149CHOL    R147235  26.052  25.591   4.433
 4149CHOL    R247236  25.764  25.782   4.473
 4149CHOL    R347237  26.087  25.557   4.858
 4149CHOL    R447238  25.762  25.709   4.774
 4149CHOL    R547239  25.695  25.540   4.451
 4149CHOL    R647240  25.826  25.473   4.895
 4149CHOL    C147241  25.893  25.648   5.199
 4149CHOL    C247242  26.102  25.513   5.565
 4150CHOL   ROH47243   9.294  34.702   3.736
 4150CHOL    R147244   9.054  34.872   4.052
 4150CHOL    R247245   9.347  34.687   4.081
 4150CHOL    R347246   9.069  34.957   4.471
 4150CHOL    R447247   9.383  34.796   4.369
 4150CHOL    R547248   9.410  34.924   4.022
 4150CHOL    R647249   9.331  35.045   4.467
 4150CHOL    C147250   9.302  34.908   4.796
 4150CHOL    C247251   9.160  34.799   5.198
 4151CHOL   ROH47252  10.475  30.752   6.839
 4151CHOL    R147253  10.214  30.671   6.505
 4151CHOL    R247254  10.556  30.609   6.531
 4151CHOL    R347255  10.205  30.455   6.136
 4151CHOL    R447256  10.533  30.409   6.296
 4151CHOL    R547257  10.433  30.424   6.652
 4151CHOL    R647258  10.334  30.232   6.237
 4151CHOL    C147259  10.437  30.231   5.895
 4151CHOL    C247260  10.502  30.149   5.438
 4152CHOL   ROH47261  14.372  13.169   6.812
 4152CHOL    R147262  14.240  13.122   6.404
 4152CHOL    R247263  14.514  13.301   6.522
 4152CHOL    R347264  14.373  13.185   6.002
 4152CHOL    R447265  14.634  13.297   6.236
 4152CHOL    R547266  14.578  13.057   6.513
 4152CHOL    R647267  14.631  13.098   6.050
 4152CHOL    C147268  14.680  13.340   5.791
 4152CHOL    C247269  14.820  13.203   5.393
 4153CHOL   ROH47270  13.342   6.574   6.959
 4153CHOL    R147271  13.258   6.167   6.843
 4153CHOL    R247272  13.154   6.461   6.688
 4153CHOL    R347273  13.104   5.941   6.515
 4153CHOL    R447274  13.094   6.299   6.431
 4153CHOL    R547275  13.392   6.416   6.617
 4153CHOL    R647276  13.232   6.091   6.321
 4153CHOL    C147277  12.936   5.985   6.151
 4153CHOL    C247278  12.700   5.651   5.948
 4154CHOL   ROH47279  30.749  10.922   6.792
 4154CHOL    R147280  30.799  10.865   6.367
 4154CHOL    R247281  30.538  11.023   6.534
 4154CHOL    R347282  30.641  10.999   5.993
 4154CHOL    R447283  30.459  11.163   6.269
 4154CHOL    R547284  30.730  11.185   6.519
 4154CHOL    R647285  30.619  11.264   6.072
 4154CHOL    C147286  30.350  11.232   5.838
 4154CHOL    C247287  30.179  10.933   5.578
 4155CHOL   ROH47288   9.843  31.936   3.783
 4155CHOL    R147289  10.146  31.895   4.088
 4155CHOL    R247290   9.803  31.934   4.130
 4155CHOL    R347291  10.187  31.821   4.507
 4155CHOL    R447292   9.830  31.827   4.419
 4155CHOL    R547293   9.847  31.692   4.074
 4155CHOL    R647294   9.989  31.627   4.515
 4155CHOL    C147295   9.969  31.770   4.842
 4155CHOL    C247296  10.106  31.618   5.215
 4156CHOL   ROH47297   3.625  22.912   7.051
 4156CHOL    R147298   3.290  22.979   6.787
 4156CHOL    R247299   3.629  23.011   6.716
 4156CHOL    R347300   3.199  23.035   6.373
 4156CHOL    R447301   3.563  22.996   6.414
 4156CHOL    R547302   3.569  22.766   6.704
 4156CHOL    R647303   3.378  22.843   6.284
 4156CHOL    C147304   3.376  23.076   6.013
 4156CHOL    C247305   3.349  23.184   5.582
 4157CHOL   ROH47306  24.137  29.353   6.082
 4157CHOL    R147307  23.976  29.534   5.725
 4157CHOL    R247308  24.183  29.256   5.750
 4157CHOL    R347309  23.924  29.456   5.308
 4157CHOL    R447310  24.099  29.172   5.463
 4157CHOL    R547311  23.947  29.182   5.801
 4157CHOL    R647312  23.855  29.190   5.342
 4157CHOL    C147313  24.014  29.186   5.022
 4157CHOL    C247314  23.879  29.288   4.619
 4158CHOL   ROH47315  35.162   3.591   6.045
 4158CHOL    R147316  35.402   3.425   5.727
 4158CHOL    R247317  35.060   3.385   5.783
 4158CHOL    R347318  35.361   3.228   5.349
 4158CHOL    R447319  35.027   3.293   5.489
 4158CHOL    R547320  35.096   3.608   5.671
 4158CHOL    R647321  35.151   3.386   5.264
 4158CHOL    C147322  35.084   3.075   5.100
 4158CHOL    C247323  35.320   2.892   4.804
 4159CHOL   ROH47324   4.096  33.559   7.348
 4159CHOL    R147325   3.944  33.227   7.117
 4159CHOL    R247326   4.096  33.519   7.002
 4159CHOL    R347327   3.955  33.066   6.721
 4159CHOL    R447328   4.151  33.378   6.731
 4159CHOL    R547329   4.277  33.361   7.079
 4159CHOL    R647330   4.224  33.119   6.682
 4159CHOL    C147331   4.092  33.146   6.351
 4159CHOL    C247332   3.880  32.888   6.032
 4160CHOL   ROH47333  31.291  25.924   7.007
 4160CHOL    R147334  31.005  25.926   6.684
 4160CHOL    R247335  31.312  26.089   6.700
 4160CHOL    R347336  30.969  26.035   6.272
 4160CHOL    R447337  31.307  26.118   6.391
 4160CHOL    R547338  31.354  25.847   6.640
 4160CHOL    R647339  31.220  25.941   6.202
 4160CHOL    C147340  31.173  26.212   5.973
 4160CHOL    C247341  31.035  26.168   5.569
 4161CHOL   ROH47342  30.394   7.226   6.497
 4161CHOL    R147343  30.089   7.283   6.197
 4161CHOL    R247344  30.386   7.461   6.239
 4161CHOL    R347345  30.022   7.485   5.826
 4161CHOL    R447346  30.361   7.563   5.947
 4161CHOL    R547347  30.440   7.245   6.120
 4161CHOL    R647348  30.274   7.431   5.724
 4161CHOL    C147349  30.197   7.744   5.570
 4161CHOL    C247350  29.924   7.946   5.323
 4162CHOL   ROH47351  21.893  22.433   6.635
 4162CHOL    R147352  21.957  22.474   6.210
 4162CHOL    R247353  22.055  22.213   6.418
 4162CHOL    R347354  22.078  22.246   5.869
 4162CHOL    R447355  22.090  22.032   6.169
 4162CHOL    R547356  21.811  22.180   6.363
 4162CHOL    R647357  21.937  22.019   5.943
 4162CHOL    C147358  22.216  21.882   5.765
 4162CHOL    C247359  22.154  21.691   5.339
 4163CHOL   ROH47360  31.557   5.150   7.191
 4163CHOL    R147361  31.695   4.999   6.812
 4163CHOL    R247362  31.460   5.248   6.871
 4163CHOL    R347363  31.686   5.092   6.394
 4163CHOL    R447364  31.497   5.348   6.580
 4163CHOL    R547365  31.689   5.350   6.897
 4163CHOL    R647366  31.725   5.363   6.431
 4163CHOL    C147367  31.529   5.354   6.132
 4163CHOL    C247368  31.633   5.443   5.699
 4164CHOL   ROH47369  30.202  24.163   7.054
 4164CHOL    R147370  30.103  23.931   6.704
 4164CHOL    R247371  30.239  24.251   6.719
 4164CHOL    R347372  30.167  23.924   6.281
 4164CHOL    R447373  30.333  24.220   6.425
 4164CHOL    R547374  30.426  24.085   6.757
 4164CHOL    R647375  30.433  24.000   6.297
 4164CHOL    C147376  30.333  24.139   5.983
 4164CHOL    C247377  30.335  23.982   5.607
 4165CHOL   ROH47378  27.787  34.219   6.710
 4165CHOL    R147379  27.491  34.072   6.433
 4165CHOL    R247380  27.710  34.340   6.393
 4165CHOL    R347381  27.373  34.108   6.024
 4165CHOL    R447382  27.662  34.327   6.087
 4165CHOL    R547383  27.837  34.127   6.345
 4165CHOL    R647384  27.631  34.109   5.926
 4165CHOL    C147385  27.459  34.311   5.686
 4165CHOL    C247386  27.280  34.371   5.289
 4166CHOL   ROH47387   5.693  12.576   7.042
 4166CHOL    R147388   5.777  12.442   6.641
 4166CHOL    R247389   5.468  12.467   6.799
 4166CHOL    R347390   5.580  12.357   6.271
 4166CHOL    R447391   5.330  12.460   6.522
 4166CHOL    R547392   5.534  12.697   6.719
 4166CHOL    R647393   5.408  12.574   6.286
 4166CHOL    C147394   5.212  12.335   6.106
 4166CHOL    C247395   5.074  12.376   5.697
 4167CHOL   ROH47396   1.267   3.978   3.739
 4167CHOL    R147397   1.479   3.912   4.108
 4167CHOL    R247398   1.253   4.165   4.033
 4167CHOL    R347399   1.481   4.037   4.517
 4167CHOL    R447400   1.215   4.216   4.336
 4167CHOL    R547401   1.121   3.957   4.089
 4167CHOL    R647402   1.205   4.037   4.542
 4167CHOL    C147403   1.302   4.295   4.770
 4167CHOL    C247404   1.531   4.501   5.072
 4168CHOL   ROH47405  12.872   8.286   4.876
 4168CHOL    R147406  13.255   8.262   5.074
 4168CHOL    R247407  12.938   8.218   5.211
 4168CHOL    R347408  13.431   8.130   5.440
 4168CHOL    R447409  13.068   8.072   5.452
 4168CHOL    R547410  13.003   8.004   5.094
 4168CHOL    R647411  13.279   7.899   5.457
 4168CHOL    C147412  13.335   7.978   5.801
 4168CHOL    C247413  13.514   8.225   6.121
 4169CHOL   ROH47414  35.720   1.570   6.051
 4169CHOL    R147415  35.895   1.431   5.682
 4169CHOL    R247416  35.940   1.738   5.839
 4169CHOL    R347417  36.203   1.529   5.403
 4169CHOL    R447418  36.197   1.782   5.671
 4169CHOL    R547419  36.088   1.570   5.954
 4169CHOL    R647420  36.387   1.601   5.597
 4169CHOL    C147421  36.480   1.812   5.323
 4169CHOL    C247422  36.577   1.978   4.909
 4170CHOL   ROH47423  34.615   8.740   5.523
 4170CHOL    R147424  34.978   8.861   5.324
 4170CHOL    R247425  34.920   8.572   5.509
 4170CHOL    R347426  35.357   8.705   5.202
 4170CHOL    R447427  35.168   8.442   5.375
 4170CHOL    R547428  34.824   8.538   5.278
 4170CHOL    R647429  35.256   8.462   5.118
 4170CHOL    C147430  35.586   8.374   5.225
 4170CHOL    C247431  36.007   8.423   5.324
 4171CHOL   ROH47432  31.602  24.518   5.734
 4171CHOL    R147433  31.187  24.637   5.748
 4171CHOL    R247434  31.420  24.697   5.496
 4171CHOL    R347435  30.878  24.790   5.496
 4171CHOL    R447436  31.187  24.755   5.300
 4171CHOL    R547437  31.335  24.461   5.470
 4171CHOL    R647438  30.944  24.632   5.279
 4171CHOL    C147439  30.811  24.924   5.121
 4171CHOL    C247440  30.439  25.103   4.971
 4172CHOL   ROH47441  33.403  21.568   7.442
 4172CHOL    R147442  33.141  21.801   7.190
 4172CHOL    R247443  33.458  21.678   7.115
 4172CHOL    R347444  33.094  21.922   6.783
 4172CHOL    R447445  33.398  21.718   6.814
 4172CHOL    R547446  33.293  21.490   7.086
 4172CHOL    R647447  33.165  21.677   6.677
 4172CHOL    C147448  33.276  21.903   6.423
 4172CHOL    C247449  33.229  22.078   6.028
 4173CHOL   ROH47450  10.081  23.478   6.339
 4173CHOL    R147451  10.080  23.283   5.955
 4173CHOL    R247452   9.938  23.588   6.041
 4173CHOL    R347453   9.995  23.360   5.543
 4173CHOL    R447454   9.928  23.664   5.741
 4173CHOL    R547455  10.185  23.625   6.004
 4173CHOL    R647456  10.109  23.612   5.543
 4173CHOL    C147457   9.851  23.646   5.298
 4173CHOL    C247458   9.616  23.560   4.932
 4174CHOL   ROH47459  14.898   4.977   3.786
 4174CHOL    R147460  14.681   4.642   3.949
 4174CHOL    R247461  14.863   4.883   4.121
 4174CHOL    R347462  14.534   4.490   4.321
 4174CHOL    R447463  14.713   4.806   4.380
 4174CHOL    R547464  14.638   4.981   4.063
 4174CHOL    R647465  14.451   4.736   4.415
 4174CHOL    C147466  14.537   4.565   4.717
 4174CHOL    C247467  14.259   4.410   5.047
 4175CHOL   ROH47468  29.891  11.339   7.124
 4175CHOL    R147469  29.837  11.409   6.702
 4175CHOL    R247470  29.764  11.121   6.883
 4175CHOL    R347471  29.644  11.240   6.359
 4175CHOL    R447472  29.580  11.027   6.652
 4175CHOL    R547473  29.576  11.285   6.918
 4175CHOL    R647474  29.412  11.173   6.495
 4175CHOL    C147475  29.429  10.920   6.243
 4175CHOL    C247476  29.362  10.811   5.827
 4176CHOL   ROH47477  31.902  24.018   7.237
 4176CHOL    R147478  32.070  23.916   6.853
 4176CHOL    R247479  31.738  23.981   6.931
 4176CHOL    R347480  31.970  23.912   6.437
 4176CHOL    R447481  31.681  24.031   6.631
 4176CHOL    R547482  31.857  24.202   6.907
 4176CHOL    R647483  31.836  24.154   6.443
 4176CHOL    C147484  31.662  23.978   6.185
 4176CHOL    C247485  31.670  23.803   5.784
 4177CHOL   ROH47486  15.794   5.001   7.182
 4177CHOL    R147487  15.693   4.841   6.794
 4177CHOL    R247488  15.637   5.163   6.915
 4177CHOL    R347489  15.567   4.968   6.405
 4177CHOL    R447490  15.600   5.262   6.624
 4177CHOL    R547491  15.878   5.148   6.841
 4177CHOL    R647492  15.734   5.188   6.398
 4177CHOL    C147493  15.457   5.297   6.200
 4177CHOL    C247494  15.125   5.196   5.940
 4178CHOL   ROH47495  31.634   8.985   6.818
 4178CHOL    R147496  31.490   8.823   6.445
 4178CHOL    R247497  31.731   9.069   6.494
 4178CHOL    R347498  31.586   8.814   6.028
 4178CHOL    R447499  31.834   9.021   6.206
 4178CHOL    R547500  31.840   8.845   6.532
 4178CHOL    R647501  31.858   8.786   6.068
 4178CHOL    C147502  31.845   8.966   5.760
 4178CHOL    C247503  31.874   8.963   5.332
 4179CHOL   ROH47504  18.897  16.135   6.936
 4179CHOL    R147505  18.987  15.829   6.645
 4179CHOL    R247506  18.793  16.115   6.603
 4179CHOL    R347507  18.963  15.753   6.225
 4179CHOL    R447508  18.824  16.087   6.296
 4179CHOL    R547509  19.035  16.182   6.585
 4179CHOL    R647510  19.041  16.008   6.151
 4179CHOL    C147511  18.826  15.914   5.881
 4179CHOL    C247512  18.788  15.747   5.487
 4180CHOL   ROH47513   8.604   2.010   6.760
 4180CHOL    R147514   8.921   1.803   6.555
 4180CHOL    R247515   8.622   1.923   6.423
 4180CHOL    R347516   9.057   1.713   6.159
 4180CHOL    R447517   8.745   1.908   6.139
 4180CHOL    R547518   8.782   2.117   6.442
 4180CHOL    R647519   9.000   1.964   6.058
 4180CHOL    C147520   8.954   1.755   5.772
 4180CHOL    C247521   9.281   1.606   5.546
 4181CHOL   ROH47522  20.646  35.489   3.937
 4181CHOL    R147523  20.732  35.503   4.359
 4181CHOL    R247524  20.484  35.674   4.184
 4181CHOL    R347525  20.562  35.638   4.728
 4181CHOL    R447526  20.335  35.723   4.451
 4181CHOL    R547527  20.403  35.438   4.224
 4181CHOL    R647528  20.305  35.556   4.666
 4181CHOL    C147529  20.246  35.840   4.876
 4181CHOL    C247530  20.217  36.096   5.217
 4182CHOL   ROH47531  30.097  25.960   6.716
 4182CHOL    R147532  30.014  26.194   6.363
 4182CHOL    R247533  30.203  25.903   6.388
 4182CHOL    R347534  30.041  26.173   5.937
 4182CHOL    R447535  30.173  25.862   6.082
 4182CHOL    R547536  29.959  25.838   6.383
 4182CHOL    R647537  29.958  25.910   5.921
 4182CHOL    C147538  30.176  25.937   5.639
 4182CHOL    C247539  30.143  26.049   5.225
 4183CHOL   ROH47540  31.709  15.069   4.709
 4183CHOL    R147541  32.008  15.098   5.019
 4183CHOL    R247542  31.666  15.151   5.046
 4183CHOL    R347543  32.045  15.126   5.444
 4183CHOL    R447544  31.688  15.116   5.353
 4183CHOL    R547545  31.707  14.902   5.051
 4183CHOL    R647546  31.843  14.943   5.496
 4183CHOL    C147547  31.823  15.161   5.779
 4183CHOL    C247548  31.905  15.136   6.207
 4184CHOL   ROH47549  20.507  34.232   4.209
 4184CHOL    R147550  20.592  34.592   4.430
 4184CHOL    R247551  20.356  34.346   4.501
 4184CHOL    R347552  20.513  34.775   4.808
 4184CHOL    R447553  20.342  34.450   4.793
 4184CHOL    R547554  20.581  34.264   4.580
 4184CHOL    R647555  20.543  34.542   4.954
 4184CHOL    C147556  20.303  34.722   5.149
 4184CHOL    C247557  20.236  35.078   5.398
 4185CHOL   ROH47558  19.192  29.623   7.140
 4185CHOL    R147559  18.904  29.820   6.887
 4185CHOL    R247560  19.243  29.771   6.829
 4185CHOL    R347561  18.857  29.966   6.488
 4185CHOL    R447562  19.195  29.824   6.527
 4185CHOL    R547563  19.123  29.557   6.773
 4185CHOL    R647564  18.985  29.750   6.370
 4185CHOL    C147565  19.061  30.016   6.144
 4185CHOL    C247566  19.039  30.083   5.725
 4186CHOL   ROH47567  18.115  31.967   6.464
 4186CHOL    R147568  18.047  32.208   6.113
 4186CHOL    R247569  18.128  31.870   6.129
 4186CHOL    R347570  17.979  32.170   5.692
 4186CHOL    R447571  18.026  31.835   5.839
 4186CHOL    R547572  17.881  31.893   6.174
 4186CHOL    R647573  17.811  31.951   5.716
 4186CHOL    C147574  17.964  31.895   5.398
 4186CHOL    C247575  17.919  32.119   5.052
 4187CHOL   ROH47576   3.359   1.149   4.177
 4187CHOL    R147577   3.281   1.160   4.601
 4187CHOL    R247578   3.528   0.983   4.433
 4187CHOL    R347579   3.458   1.052   4.975
 4187CHOL    R447580   3.683   0.953   4.701
 4187CHOL    R547581   3.606   1.221   4.457
 4187CHOL    R647582   3.713   1.133   4.904
 4187CHOL    C147583   3.780   0.864   5.130
 4187CHOL    C247584   3.874   0.939   5.534
 4188CHOL   ROH47585  13.306  30.062   3.932
 4188CHOL    R147586  13.168  29.805   4.250
 4188CHOL    R247587  13.469  29.977   4.228
 4188CHOL    R347588  13.259  29.698   4.653
 4188CHOL    R447589  13.505  29.944   4.534
 4188CHOL    R547590  13.291  30.140   4.304
 4188CHOL    R647591  13.318  29.956   4.733
 4188CHOL    C147592  13.532  29.762   4.944
 4188CHOL    C247593  13.533  29.722   5.377
 4189CHOL   ROH47594  21.148  16.919   4.137
 4189CHOL    R147595  21.527  16.818   4.316
 4189CHOL    R247596  21.241  16.941   4.472
 4189CHOL    R347597  21.705  16.752   4.699
 4189CHOL    R447598  21.351  16.842   4.744
 4189CHOL    R547599  21.209  16.693   4.436
 4189CHOL    R647600  21.489  16.613   4.802
 4189CHOL    C147601  21.624  16.770   5.094
 4189CHOL    C247602  21.764  16.547   5.435
 4190CHOL   ROH47603  28.495   4.313   7.354
 4190CHOL    R147604  28.207   4.438   7.058
 4190CHOL    R247605  28.552   4.484   7.056
 4190CHOL    R347606  28.185   4.584   6.657
 4190CHOL    R447607  28.538   4.536   6.750
 4190CHOL    R547608  28.504   4.248   6.980
 4190CHOL    R647609  28.383   4.416   6.561
 4190CHOL    C147610  28.419   4.703   6.351
 4190CHOL    C247611  28.306   4.918   5.981
 4191CHOL   ROH47612  28.515   4.455   4.063
 4191CHOL    R147613  28.569   4.726   4.395
 4191CHOL    R247614  28.455   4.397   4.402
 4191CHOL    R347615  28.584   4.728   4.822
 4191CHOL    R447616  28.519   4.385   4.705
 4191CHOL    R547617  28.706   4.392   4.385
 4191CHOL    R647618  28.730   4.493   4.841
 4191CHOL    C147619  28.537   4.487   5.142
 4191CHOL    C247620  28.818   4.491   5.458
 4192CHOL   ROH47621  33.178  30.650   7.336
 4192CHOL    R147622  33.425  30.351   7.147
 4192CHOL    R247623  33.216  30.585   6.995
 4192CHOL    R347624  33.579  30.242   6.763
 4192CHOL    R447625  33.368  30.542   6.729
 4192CHOL    R547626  33.431  30.701   7.057
 4192CHOL    R647627  33.635  30.502   6.686
 4192CHOL    C147628  33.561  30.345   6.374
 4192CHOL    C247629  33.827  30.236   6.022
 4193CHOL   ROH47630  28.553  28.761   3.856
 4193CHOL    R147631  28.461  28.856   4.267
 4193CHOL    R247632  28.416  28.554   4.101
 4193CHOL    R347633  28.360  28.667   4.637
 4193CHOL    R447634  28.398  28.410   4.375
 4193CHOL    R547635  28.659  28.571   4.168
 4193CHOL    R647636  28.538  28.457   4.605
 4193CHOL    C147637  28.276  28.305   4.795
 4193CHOL    C247638  28.099  28.220   5.198
 4194CHOL   ROH47639  21.621  20.632   4.120
 4194CHOL    R147640  21.636  20.424   4.498
 4194CHOL    R247641  21.544  20.754   4.437
 4194CHOL    R347642  21.508  20.465   4.904
 4194CHOL    R447643  21.404  20.762   4.714
 4194CHOL    R547644  21.347  20.607   4.382
 4194CHOL    R647645  21.259  20.567   4.839
 4194CHOL    C147646  21.326  20.723   5.154
 4194CHOL    C247647  21.317  20.620   5.584
 4195CHOL   ROH47648  12.735  31.841   5.224
 4195CHOL    R147649  12.499  32.199   5.175
 4195CHOL    R247650  12.556  32.017   5.466
 4195CHOL    R347651  12.309  32.505   5.405
 4195CHOL    R447652  12.468  32.263   5.632
 4195CHOL    R547653  12.758  32.163   5.424
 4195CHOL    R647654  12.516  32.528   5.588
 4195CHOL    C147655  12.230  32.612   5.786
 4195CHOL    C247656  12.234  33.034   5.902
 4196CHOL   ROH47657  22.326  18.286   7.585
 4196CHOL    R147658  22.138  18.148   7.222
 4196CHOL    R247659  22.415  18.357   7.255
 4196CHOL    R347660  22.207  18.127   6.800
 4196CHOL    R447661  22.492  18.294   6.961
 4196CHOL    R547662  22.492  18.118   7.287
 4196CHOL    R647663  22.474  18.059   6.824
 4196CHOL    C147664  22.469  18.241   6.516
 4196CHOL    C247665  22.351  18.058   6.140
 4197CHOL   ROH47666  14.567   6.037   5.702
 4197CHOL    R147667  14.983   5.923   5.719
 4197CHOL    R247668  14.820   6.107   5.473
 4197CHOL    R347669  15.359   6.011   5.535
 4197CHOL    R447670  15.095   6.212   5.375
 4197CHOL    R547671  14.871   6.262   5.665
 4197CHOL    R647672  15.315   6.284   5.521
 4197CHOL    C147673  15.522   6.226   5.235
 4197CHOL    C247674  15.922   6.369   5.278
 4198CHOL   ROH47675  26.963  15.711   3.963
 4198CHOL    R147676  27.103  15.544   4.335
 4198CHOL    R247677  26.907  15.827   4.287
 4198CHOL    R347678  27.038  15.572   4.757
 4198CHOL    R447679  26.819  15.812   4.584
 4198CHOL    R547680  26.757  15.625   4.270
 4198CHOL    R647681  26.763  15.593   4.737
 4198CHOL    C147682  26.831  15.782   5.032
 4198CHOL    C247683  26.778  15.609   5.447
 4199CHOL   ROH47684  26.891  25.439   5.637
 4199CHOL    R147685  26.981  25.644   5.269
 4199CHOL    R247686  27.203  25.517   5.504
 4199CHOL    R347687  27.307  25.725   5.005
 4199CHOL    R447688  27.428  25.526   5.290
 4199CHOL    R547689  27.124  25.326   5.359
 4199CHOL    R647690  27.415  25.471   5.023
 4199CHOL    C147691  27.705  25.672   4.969
 4199CHOL    C247692  27.899  26.070   4.877
 4200CHOL   ROH47693  12.687  22.694   3.710
 4200CHOL    R147694  12.419  22.444   3.938
 4200CHOL    R247695  12.668  22.656   4.056
 4200CHOL    R347696  12.284  22.381   4.338
 4200CHOL    R447697  12.534  22.651   4.336
 4200CHOL    R547698  12.465  22.796   4.002
 4200CHOL    R647699  12.268  22.650   4.400
 4200CHOL    C147700  12.347  22.504   4.717
 4200CHOL    C247701  12.133  22.340   5.080
 4201CHOL   ROH47702  27.000  12.847   4.039
 4201CHOL    R147703  26.855  12.511   4.267
 4201CHOL    R247704  27.041  12.782   4.380
 4201CHOL    R347705  26.801  12.382   4.671
 4201CHOL    R447706  26.954  12.717   4.670
 4201CHOL    R547707  26.800  12.855   4.363
 4201CHOL    R647708  26.713  12.628   4.762
 4201CHOL    C147709  26.874  12.494   5.052
 4201CHOL    C247710  26.689  12.260   5.345
 4202CHOL   ROH47711   9.228  22.047   6.553
 4202CHOL    R147712   9.540  21.876   6.310
 4202CHOL    R247713   9.204  21.784   6.326
 4202CHOL    R347714   9.594  21.613   5.976
 4202CHOL    R447715   9.235  21.639   6.054
 4202CHOL    R547716   9.222  21.987   6.178
 4202CHOL    R647717   9.379  21.713   5.834
 4202CHOL    C147718   9.389  21.371   5.727
 4202CHOL    C247719   9.468  21.281   5.314
 4203CHOL   ROH47720  35.334   4.005   3.732
 4203CHOL    R147721  35.333   3.819   4.122
 4203CHOL    R247722  35.311   4.158   4.045
 4203CHOL    R347723  35.250   3.908   4.532
 4203CHOL    R447724  35.198   4.211   4.329
 4203CHOL    R547725  35.083   4.055   4.013
 4203CHOL    R647726  35.025   4.060   4.477
 4203CHOL    C147727  35.148   4.213   4.775
 4203CHOL    C247728  35.268   4.184   5.199
 4204CHOL   ROH47729  22.853  22.415   4.024
 4204CHOL    R147730  23.039  22.438   4.412
 4204CHOL    R247731  22.812  22.659   4.269
 4204CHOL    R347732  23.007  22.647   4.784
 4204CHOL    R447733  22.751  22.773   4.551
 4204CHOL    R547734  22.682  22.463   4.360
 4204CHOL    R647735  22.730  22.641   4.789
 4204CHOL    C147736  22.803  22.946   4.962
 4204CHOL    C247737  22.989  23.037   5.339
 4205CHOL   ROH47738  11.781  21.085   6.886
 4205CHOL    R147739  11.858  20.809   6.563
 4205CHOL    R247740  11.770  21.145   6.542
 4205CHOL    R347741  11.929  20.804   6.141
 4205CHOL    R447742  11.874  21.151   6.251
 4205CHOL    R547743  12.017  21.133   6.592
 4205CHOL    R647744  12.092  21.028   6.143
 4205CHOL    C147745  11.941  21.047   5.819
 4205CHOL    C247746  11.840  20.931   5.408
 4206CHOL   ROH47747   2.444   8.166   7.243
 4206CHOL    R147748   2.591   8.418   6.926
 4206CHOL    R247749   2.557   8.072   6.927
 4206CHOL    R347750   2.685   8.406   6.509
 4206CHOL    R447751   2.570   8.073   6.617
 4206CHOL    R547752   2.330   8.172   6.881
 4206CHOL    R647753   2.465   8.252   6.440
 4206CHOL    C147754   2.706   8.151   6.196
 4206CHOL    C247755   3.046   8.153   5.930
 4207CHOL   ROH47756  25.672   9.437   3.818
 4207CHOL    R147757  25.724   9.261   4.208
 4207CHOL    R247758  25.615   9.582   4.130
 4207CHOL    R347759  25.626   9.329   4.619
 4207CHOL    R447760  25.496   9.606   4.415
 4207CHOL    R547761  25.420   9.424   4.102
 4207CHOL    R647762  25.369   9.418   4.567
 4207CHOL    C147763  25.454   9.600   4.862
 4207CHOL    C247764  25.293   9.520   5.275
 4208CHOL   ROH47765   6.580  14.554   3.887
 4208CHOL    R147766   6.583  14.559   4.318
 4208CHOL    R247767   6.763  14.352   4.104
 4208CHOL    R347768   6.806  14.407   4.650
 4208CHOL    R447769   6.957  14.286   4.337
 4208CHOL    R547770   6.882  14.574   4.116
 4208CHOL    R647771   7.053  14.450   4.533
 4208CHOL    C147772   7.116  14.165   4.740
 4208CHOL    C247773   7.298  14.006   5.139
 4209CHOL   ROH47774  29.187  32.002   6.556
 4209CHOL    R147775  29.175  31.929   6.131
 4209CHOL    R247776  29.103  32.224   6.300
 4209CHOL    R347777  29.149  32.138   5.758
 4209CHOL    R447778  29.140  32.381   6.035
 4209CHOL    R547779  29.354  32.205   6.280
 4209CHOL    R647780  29.321  32.342   5.835
 4209CHOL    C147781  29.102  32.508   5.606
 4209CHOL    C247782  29.029  32.394   5.192
 4210CHOL   ROH47783   9.631   1.060   6.716
 4210CHOL    R147784   9.895   1.088   6.375
 4210CHOL    R247785   9.565   0.978   6.383
 4210CHOL    R347786   9.887   1.074   5.948
 4210CHOL    R447787   9.547   1.021   6.077
 4210CHOL    R547788   9.563   1.230   6.382
 4210CHOL    R647789   9.654   1.220   5.924
 4210CHOL    C147790   9.639   1.007   5.637
 4210CHOL    C247791   9.712   0.852   5.225
 4211CHOL   ROH47792  15.981  32.756   6.966
 4211CHOL    R147793  15.771  32.584   6.631
 4211CHOL    R247794  15.961  32.875   6.638
 4211CHOL    R347795  15.742  32.616   6.205
 4211CHOL    R447796  15.983  32.864   6.329
 4211CHOL    R547797  16.119  32.679   6.620
 4211CHOL    R647798  16.014  32.648   6.166
 4211CHOL    C147799  15.876  32.835   5.894
 4211CHOL    C247800  15.969  32.668   5.481
 4212CHOL   ROH47801  33.551  31.235   4.177
 4212CHOL    R147802  33.484  31.407   4.567
 4212CHOL    R247803  33.612  31.093   4.489
 4212CHOL    R347804  33.579  31.343   4.979
 4212CHOL    R447805  33.728  31.074   4.776
 4212CHOL    R547806  33.798  31.261   4.464
 4212CHOL    R647807  33.842  31.268   4.930
 4212CHOL    C147808  33.763  31.080   5.224
 4212CHOL    C247809  33.745  31.062   5.628
 4213CHOL   ROH47810  19.536  23.551   7.189
 4213CHOL    R147811  19.613  23.180   6.984
 4213CHOL    R247812  19.636  23.504   6.859
 4213CHOL    R347813  19.790  23.030   6.625
 4213CHOL    R447814  19.812  23.397   6.627
 4213CHOL    R547815  19.846  23.456   6.991
 4213CHOL    R647816  20.005  23.204   6.631
 4213CHOL    C147817  19.959  23.152   6.280
 4213CHOL    C247818  20.127  23.037   5.910
 4214CHOL   ROH47819  21.669  33.612   4.203
 4214CHOL    R147820  21.509  33.831   4.539
 4214CHOL    R247821  21.745  33.575   4.542
 4214CHOL    R347822  21.581  33.899   4.956
 4214CHOL    R447823  21.832  33.663   4.826
 4214CHOL    R547824  21.863  33.789   4.479
 4214CHOL    R647825  21.856  33.915   4.929
 4214CHOL    C147826  21.820  33.782   5.259
 4214CHOL    C247827  21.669  33.651   5.650
 4215CHOL   ROH47828   5.820  20.984   4.788
 4215CHOL    R147829   5.899  20.756   5.146
 4215CHOL    R247830   6.074  20.752   4.845
 4215CHOL    R347831   6.202  20.513   5.324
 4215CHOL    R447832   6.315  20.624   4.992
 4215CHOL    R547833   6.148  20.954   4.976
 4215CHOL    R647834   6.412  20.675   5.242
 4215CHOL    C147835   6.563  20.351   5.248
 4215CHOL    C247836   6.740  20.046   5.486
 4216CHOL   ROH47837   0.078  16.102   7.424
 4216CHOL    R147838   0.249  16.464   7.265
 4216CHOL    R247839   0.168  16.172   7.095
 4216CHOL    R347840   0.328  16.658   6.892
 4216CHOL    R447841   0.173  16.330   6.828
 4216CHOL    R547842  -0.044  16.305   7.127
 4216CHOL    R647843   0.088  16.584   6.776
 4216CHOL    C147844   0.306  16.598   6.494
 4216CHOL    C247845   0.208  16.886   6.223
 4217CHOL   ROH47846  20.512  16.575   6.616
 4217CHOL    R147847  20.703  16.414   6.264
 4217CHOL    R247848  20.391  16.567   6.289
 4217CHOL    R347849  20.668  16.414   5.838
 4217CHOL    R447850  20.395  16.614   5.983
 4217CHOL    R547851  20.567  16.748   6.282
 4217CHOL    R647852  20.603  16.683   5.821
 4217CHOL    C147853  20.430  16.544   5.540
 4217CHOL    C247854  20.486  16.505   5.088
 4218CHOL   ROH47855  20.761  16.981   6.901
 4218CHOL    R147856  20.983  17.298   6.710
 4218CHOL    R247857  20.816  17.032   6.561
 4218CHOL    R347858  21.049  17.472   6.325
 4218CHOL    R447859  20.818  17.187   6.292
 4218CHOL    R547860  20.645  17.208   6.619
 4218CHOL    R647861  20.784  17.453   6.246
 4218CHOL    C147862  20.958  17.421   5.936
 4218CHOL    C247863  20.967  17.604   5.566
 4219CHOL   ROH47864   3.026  32.157   4.227
 4219CHOL    R147865   3.339  31.927   4.413
 4219CHOL    R247866   3.218  32.239   4.506
 4219CHOL    R347867   3.572  31.913   4.771
 4219CHOL    R447868   3.344  32.200   4.787
 4219CHOL    R547869   3.058  32.064   4.594
 4219CHOL    R647870   3.361  31.974   4.939
 4219CHOL    C147871   3.639  32.115   5.114
 4219CHOL    C247872   3.945  32.020   5.426
 4220CHOL   ROH47873  18.999  18.321   3.985
 4220CHOL    R147874  18.910  18.511   4.362
 4220CHOL    R247875  19.077  18.211   4.306
 4220CHOL    R347876  19.013  18.490   4.777
 4220CHOL    R447877  19.194  18.227   4.593
 4220CHOL    R547878  19.240  18.399   4.268
 4220CHOL    R647879  19.282  18.446   4.731
 4220CHOL    C147880  19.228  18.272   5.039
 4220CHOL    C247881  19.276  18.497   5.417
 4221CHOL   ROH47882   4.493  13.532   5.715
 4221CHOL    R147883   4.605  13.867   5.963
 4221CHOL    R247884   4.757  13.555   5.941
 4221CHOL    R347885   4.927  14.006   6.208
 4221CHOL    R447886   5.012  13.675   6.071
 4221CHOL    R547887   4.836  13.694   5.746
 4221CHOL    R647888   5.125  13.920   6.035
 4221CHOL    C147889   5.286  13.892   6.353
 4221CHOL    C247890   5.335  14.115   6.720
 4222CHOL   ROH47891  35.460  12.453   4.246
 4222CHOL    R147892  35.317  12.507   4.650
 4222CHOL    R247893  35.522  12.255   4.526
 4222CHOL    R347894  35.385  12.367   5.048
 4222CHOL    R447895  35.612  12.192   4.816
 4222CHOL    R547896  35.665  12.460   4.566
 4222CHOL    R647897  35.661  12.363   5.023
 4222CHOL    C147898  35.602  12.098   5.256
 4222CHOL    C247899  35.346  12.038   5.613
 4223CHOL   ROH47900   2.617  14.719   4.632
 4223CHOL    R147901   2.699  14.997   4.952
 4223CHOL    R247902   2.427  14.782   4.917
 4223CHOL    R347903   2.570  15.093   5.349
 4223CHOL    R447904   2.369  14.812   5.220
 4223CHOL    R547905   2.622  14.648   5.005
 4223CHOL    R647906   2.544  14.829   5.429
 4223CHOL    C147907   2.294  14.993   5.625
 4223CHOL    C247908   2.108  15.204   5.932
 4224CHOL   ROH47909  14.779  25.777   3.561
 4224CHOL    R147910  15.091  25.886   3.838
 4224CHOL    R247911  14.755  25.974   3.847
 4224CHOL    R347912  15.146  26.058   4.226
 4224CHOL    R447913  14.786  26.047   4.147
 4224CHOL    R547914  14.777  25.741   3.939
 4224CHOL    R647915  14.933  25.923   4.340
 4224CHOL    C147916  14.940  26.227   4.529
 4224CHOL    C247917  14.827  26.264   4.948
 4225CHOL   ROH47918  18.796   0.488   3.888
 4225CHOL    R147919  18.637   0.096   3.968
 4225CHOL    R247920  18.785   0.317   4.191
 4225CHOL    R347921  18.526  -0.157   4.295
 4225CHOL    R447922  18.656   0.161   4.426
 4225CHOL    R547923  18.546   0.390   4.156
 4225CHOL    R647924  18.409   0.046   4.442
 4225CHOL    C147925  18.529  -0.173   4.698
 4225CHOL    C247926  18.244  -0.396   4.971
 4226CHOL   ROH47927  31.146   2.291   4.192
 4226CHOL    R147928  31.135   1.879   4.320
 4226CHOL    R247929  31.319   2.141   4.455
 4226CHOL    R347930  31.251   1.630   4.647
 4226CHOL    R447931  31.355   1.977   4.715
 4226CHOL    R547932  31.083   2.159   4.542
 4226CHOL    R647933  31.178   1.813   4.842
 4226CHOL    C147934  31.450   1.641   4.998
 4226CHOL    C247935  31.754   1.368   5.132
 4227CHOL   ROH47936  30.345  13.565   3.773
 4227CHOL    R147937  30.480  13.941   3.935
 4227CHOL    R247938  30.359  13.664   4.107
 4227CHOL    R347939  30.588  14.123   4.307
 4227CHOL    R447940  30.487  13.774   4.367
 4227CHOL    R547941  30.600  13.621   4.049
 4227CHOL    R647942  30.726  13.902   4.401
 4227CHOL    C147943  30.603  14.048   4.703
 4227CHOL    C247944  30.905  14.250   4.929
 4228CHOL   ROH47945   2.371  34.835   6.987
 4228CHOL    R147946   2.597  34.706   6.642
 4228CHOL    R247947   2.264  34.805   6.656
 4228CHOL    R347948   2.575  34.699   6.215
 4228CHOL    R447949   2.269  34.852   6.350
 4228CHOL    R547950   2.407  35.013   6.653
 4228CHOL    R647951   2.468  34.953   6.194
 4228CHOL    C147952   2.328  34.787   5.909
 4228CHOL    C247953   2.408  34.722   5.503
 4229CHOL   ROH47954  11.801  18.151   3.581
 4229CHOL    R147955  11.822  18.162   4.012
 4229CHOL    R247956  11.742  18.421   3.794
 4229CHOL    R347957  11.712  18.409   4.343
 4229CHOL    R447958  11.613  18.575   4.030
 4229CHOL    R547959  11.536  18.278   3.823
 4229CHOL    R647960  11.466  18.479   4.239
 4229CHOL    C147961  11.552  18.768   4.431
 4229CHOL    C247962  11.600  19.003   4.782
 4230CHOL   ROH47963   5.158   8.561   4.305
 4230CHOL    R147964   5.294   8.866   4.577
 4230CHOL    R247965   5.045   8.628   4.628
 4230CHOL    R347966   5.266   8.980   4.989
 4230CHOL    R447967   5.067   8.675   4.933
 4230CHOL    R547968   5.268   8.517   4.666
 4230CHOL    R647969   5.289   8.722   5.085
 4230CHOL    C147970   5.085   8.878   5.334
 4230CHOL    C247971   4.975   9.137   5.667
 4231CHOL   ROH47972   7.116   8.267   5.157
 4231CHOL    R147973   7.432   8.437   4.918
 4231CHOL    R247974   7.266   8.135   4.871
 4231CHOL    R347975   7.626   8.388   4.540
 4231CHOL    R447976   7.365   8.131   4.578
 4231CHOL    R547977   7.120   8.319   4.781
 4231CHOL    R647978   7.392   8.338   4.401
 4231CHOL    C147979   7.632   8.148   4.217
 4231CHOL    C247980   7.838   8.169   3.816
 4232CHOL   ROH47981  29.481   9.793   7.000
 4232CHOL    R147982  29.368   9.458   6.752
 4232CHOL    R247983  29.364   9.797   6.672
 4232CHOL    R347984  29.280   9.361   6.345
 4232CHOL    R447985  29.355   9.721   6.371
 4232CHOL    R547986  29.601   9.714   6.648
 4232CHOL    R647987  29.483   9.518   6.240
 4232CHOL    C147988  29.236   9.531   5.982
 4232CHOL    C247989  29.147   9.286   5.630
 4233CHOL   ROH47990  25.111   4.532   6.275
 4233CHOL    R147991  25.212   4.244   5.970
 4233CHOL    R247992  25.031   4.539   5.935
 4233CHOL    R347993  25.215   4.198   5.544
 4233CHOL    R447994  25.084   4.531   5.630
 4233CHOL    R547995  25.276   4.598   5.939
 4233CHOL    R647996  25.308   4.455   5.495
 4233CHOL    C147997  25.110   4.388   5.205
 4233CHOL    C247998  25.299   4.340   4.823
 4234CHOL   ROH47999  25.243  33.434   3.471
 4234CHOL    R148000  25.094  33.403   3.875
 4234CHOL    R248001  25.424  33.436   3.769
 4234CHOL    R348002  25.221  33.457   4.280
 4234CHOL    R448003  25.502  33.529   4.054
 4234CHOL    R548004  25.317  33.665   3.764
 4234CHOL    R648005  25.365  33.688   4.228
 4234CHOL    C148006  25.546  33.544   4.501
 4234CHOL    C248007  25.553  33.632   4.949
 4235CHOL   ROH48008  34.639  20.449   4.375
 4235CHOL    R148009  34.484  20.238   4.718
 4235CHOL    R248010  34.677  20.527   4.713
 4235CHOL    R348011  34.424  20.286   5.138
 4235CHOL    R448012  34.587  20.587   5.004
 4235CHOL    R548013  34.439  20.592   4.664
 4235CHOL    R648014  34.343  20.550   5.120
 4235CHOL    C148015  34.500  20.541   5.442
 4235CHOL    C248016  34.602  20.364   5.807
 4236CHOL   ROH48017  26.517   2.658   6.973
 4236CHOL    R148018  26.538   2.574   6.550
 4236CHOL    R248019  26.367   2.831   6.710
 4236CHOL    R348020  26.449   2.751   6.172
 4236CHOL    R448021  26.352   2.983   6.440
 4236CHOL    R548022  26.609   2.898   6.693
 4236CHOL    R648023  26.539   3.003   6.243
 4236CHOL    C148024  26.281   3.079   6.007
 4236CHOL    C248025  26.282   3.066   5.594
 4237CHOL   ROH48026  26.868   4.399   7.171
 4237CHOL    R148027  27.086   4.507   6.814
 4237CHOL    R248028  26.864   4.243   6.859
 4237CHOL    R348029  27.098   4.424   6.395
 4237CHOL    R448030  26.833   4.222   6.551
 4237CHOL    R548031  26.729   4.453   6.821
 4237CHOL    R648032  26.823   4.421   6.364
 4237CHOL    C148033  26.929   4.189   6.114
 4237CHOL    C248034  26.964   4.253   5.696
 4238CHOL   ROH48035  23.528  20.652   7.175
 4238CHOL    R148036  23.257  20.651   6.839
 4238CHOL    R248037  23.604  20.625   6.836
 4238CHOL    R348038  23.247  20.563   6.421
 4238CHOL    R448039  23.588  20.509   6.549
 4238CHOL    R548040  23.509  20.398   6.893
 4238CHOL    R648041  23.405  20.337   6.441
 4238CHOL    C148042  23.486  20.457   6.114
 4238CHOL    C248043  23.470  20.457   5.646
 4239CHOL   ROH48044  14.571  11.607   7.230
 4239CHOL    R148045  14.769  11.875   6.956
 4239CHOL    R248046  14.530  11.632   6.885
 4239CHOL    R348047  14.741  12.018   6.554
 4239CHOL    R448048  14.473  11.772   6.614
 4239CHOL    R548049  14.410  11.836   6.974
 4239CHOL    R648050  14.465  12.039   6.556
 4239CHOL    C148051  14.533  11.965   6.213
 4239CHOL    C248052  14.654  11.984   5.783
 4240CHOL   ROH48053  15.807   4.767   3.969
 4240CHOL    R148054  15.839   4.968   4.349
 4240CHOL    R248055  15.732   4.643   4.286
 4240CHOL    R348056  15.834   4.887   4.769
 4240CHOL    R448057  15.783   4.573   4.584
 4240CHOL    R548058  15.984   4.645   4.282
 4240CHOL    R648059  15.984   4.655   4.749
 4240CHOL    C148060  15.778   4.587   5.033
 4240CHOL    C248061  15.669   4.744   5.438
 4241CHOL   ROH48062  29.393  16.996   7.047
 4241CHOL    R148063  29.160  17.126   6.708
 4241CHOL    R248064  29.418  16.892   6.715
 4241CHOL    R348065  29.077  17.019   6.302
 4241CHOL    R448066  29.320  16.781   6.443
 4241CHOL    R548067  29.208  16.779   6.796
 4241CHOL    R648068  29.065  16.747   6.352
 4241CHOL    C148069  29.184  16.757   6.015
 4241CHOL    C248070  28.987  16.721   5.667
 4242CHOL   ROH48071   8.542   4.425   6.838
 4242CHOL    R148072   8.255   4.463   6.517
 4242CHOL    R248073   8.578   4.591   6.534
 4242CHOL    R348074   8.230   4.583   6.108
 4242CHOL    R448075   8.576   4.626   6.226
 4242CHOL    R548076   8.594   4.348   6.469
 4242CHOL    R648077   8.469   4.463   6.034
 4242CHOL    C148078   8.451   4.741   5.810
 4242CHOL    C248079   8.306   4.509   5.502
 4243CHOL   ROH48080   0.710  16.998   7.266
 4243CHOL    R148081   0.824  16.688   6.988
 4243CHOL    R248082   0.620  16.964   6.930
 4243CHOL    R348083   0.820  16.599   6.570
 4243CHOL    R448084   0.664  16.928   6.626
 4243CHOL    R548085   0.859  17.041   6.919
 4243CHOL    R648086   0.890  16.855   6.491
 4243CHOL    C148087   0.690  16.744   6.217
 4243CHOL    C248088   0.498  16.370   6.029
 4244CHOL   ROH48089  25.388  27.253   6.913
 4244CHOL    R148090  25.128  27.056   6.632
 4244CHOL    R248091  25.359  27.308   6.570
 4244CHOL    R348092  25.067  27.010   6.211
 4244CHOL    R448093  25.353  27.235   6.269
 4244CHOL    R548094  25.484  27.090   6.584
 4244CHOL    R648095  25.337  26.989   6.151
 4244CHOL    C148096  25.205  27.141   5.855
 4244CHOL    C248097  25.094  27.022   5.458
 4245CHOL   ROH48098  28.747  30.244   6.705
 4245CHOL    R148099  28.945  29.977   6.429
 4245CHOL    R248100  28.694  30.208   6.362
 4245CHOL    R348101  28.993  29.909   6.010
 4245CHOL    R448102  28.769  30.197   6.062
 4245CHOL    R548103  28.913  30.333   6.374
 4245CHOL    R648104  29.016  30.177   5.946
 4245CHOL    C148105  28.865  30.041   5.651
 4245CHOL    C248106  28.935  29.881   5.229
 4246CHOL   ROH48107  27.819  30.683   6.394
 4246CHOL    R148108  27.987  30.748   6.002
 4246CHOL    R248109  27.848  30.456   6.131
 4246CHOL    R348110  28.009  30.566   5.616
 4246CHOL    R448111  27.815  30.350   5.842
 4246CHOL    R548112  27.660  30.607   6.058
 4246CHOL    R648113  27.745  30.484   5.615
 4246CHOL    C148114  27.903  30.232   5.417
 4246CHOL    C248115  28.147  30.165   5.031
 4247CHOL   ROH48116   7.147   7.217   7.058
 4247CHOL    R148117   7.240   7.535   6.782
 4247CHOL    R248118   7.404   7.232   6.823
 4247CHOL    R348119   7.476   7.615   6.435
 4247CHOL    R448120   7.533   7.268   6.543
 4247CHOL    R548121   7.199   7.191   6.683
 4247CHOL    R648122   7.424   7.371   6.315
 4247CHOL    C148123   7.752   7.447   6.194
 4247CHOL    C248124   8.140   7.548   6.023
 4248CHOL   ROH48125  10.400  26.438   6.773
 4248CHOL    R148126  10.513  26.389   6.359
 4248CHOL    R248127  10.254  26.581   6.490
 4248CHOL    R348128  10.443  26.560   5.973
 4248CHOL    R448129  10.243  26.740   6.224
 4248CHOL    R548130  10.468  26.711   6.517
 4248CHOL    R648131  10.448  26.822   6.063
 4248CHOL    C148132  10.222  26.840   5.787
 4248CHOL    C248133  10.321  27.024   5.398
 4249CHOL   ROH48134   1.996   8.682   4.211
 4249CHOL    R148135   2.243   8.864   4.514
 4249CHOL    R248136   1.951   8.680   4.557
 4249CHOL    R348137   2.304   8.863   4.937
 4249CHOL    R448138   2.028   8.635   4.854
 4249CHOL    R548139   2.141   8.518   4.521
 4249CHOL    R648140   2.273   8.590   4.964
 4249CHOL    C148141   2.153   8.710   5.279
 4249CHOL    C248142   2.208   8.739   5.714
 4250CHOL   ROH48143  34.347  30.586   4.561
 4250CHOL    R148144  34.258  30.371   4.924
 4250CHOL    R248145  34.544  30.352   4.728
 4250CHOL    R348146  34.447  30.128   5.221
 4250CHOL    R448147  34.695  30.224   4.967
 4250CHOL    R548148  34.563  30.557   4.873
 4250CHOL    R648149  34.677  30.282   5.233
 4250CHOL    C148150  34.800  29.955   5.311
 4250CHOL    C248151  34.744  29.546   5.468
 4251CHOL   ROH48152   6.885  21.885   4.758
 4251CHOL    R148153   7.133  21.828   5.107
 4251CHOL    R248154   6.797  21.747   5.067
 4251CHOL    R348155   7.136  21.624   5.483
 4251CHOL    R448156   6.818  21.556   5.310
 4251CHOL    R548157   6.935  21.566   4.958
 4251CHOL    R648158   7.023  21.392   5.383
 4251CHOL    C148159   6.904  21.395   5.720
 4251CHOL    C248160   6.995  21.329   6.108
 4252CHOL   ROH48161  28.431  20.773   6.766
 4252CHOL    R148162  28.228  20.965   6.437
 4252CHOL    R248163  28.543  20.817   6.438
 4252CHOL    R348164  28.252  21.009   6.012
 4252CHOL    R448165  28.532  20.801   6.129
 4252CHOL    R548166  28.371  20.633   6.417
 4252CHOL    R648167  28.321  20.745   5.966
 4252CHOL    C148168  28.484  20.914   5.697
 4252CHOL    C248169  28.448  20.899   5.252
 4253CHOL   ROH48170  11.057   5.884   6.777
 4253CHOL    R148171  11.198   6.141   6.459
 4253CHOL    R248172  11.160   5.795   6.456
 4253CHOL    R348173  11.280   6.135   6.040
 4253CHOL    R448174  11.165   5.802   6.146
 4253CHOL    R548175  10.933   5.899   6.418
 4253CHOL    R648176  11.056   5.985   5.975
 4253CHOL    C148177  11.289   5.886   5.722
 4253CHOL    C248178  11.434   5.975   5.312
 4254CHOL   ROH48179  10.532  35.004   6.719
 4254CHOL    R148180  10.247  34.825   6.448
 4254CHOL    R248181  10.459  35.095   6.390
 4254CHOL    R348182  10.139  34.823   6.035
 4254CHOL    R448183  10.420  35.055   6.086
 4254CHOL    R548184  10.594  34.884   6.364
 4254CHOL    R648185  10.400  34.823   5.943
 4254CHOL    C148186  10.228  34.999   5.683
 4254CHOL    C248187  10.139  34.710   5.371
 4255CHOL   ROH48188  19.723  21.705   6.996
 4255CHOL    R148189  19.597  21.833   6.604
 4255CHOL    R248190  19.872  21.638   6.688
 4255CHOL    R348191  19.670  21.756   6.190
 4255CHOL    R448192  19.889  21.541   6.394
 4255CHOL    R548193  19.669  21.489   6.687
 4255CHOL    R648194  19.687  21.481   6.220
 4255CHOL    C148195  19.907  21.540   5.945
 4255CHOL    C248196  19.848  21.557   5.503
 4256CHOL   ROH48197   9.123  24.613   6.166
 4256CHOL    R148198   8.961  24.537   5.774
 4256CHOL    R248199   9.130  24.820   5.886
 4256CHOL    R348200   8.975  24.690   5.374
 4256CHOL    R448201   9.185  24.899   5.591
 4256CHOL    R548202   9.302  24.643   5.832
 4256CHOL    R648203   9.247  24.740   5.378
 4256CHOL    C148204   9.126  24.993   5.156
 4256CHOL    C248205   9.140  24.882   4.739
 4257CHOL   ROH48206   0.358  13.493   4.041
 4257CHOL    R148207   0.060  13.334   4.309
 4257CHOL    R248208   0.361  13.487   4.389
 4257CHOL    R348209  -0.051  13.338   4.722
 4257CHOL    R448210   0.255  13.537   4.676
 4257CHOL    R548211   0.194  13.668   4.335
 4257CHOL    R648212   0.004  13.607   4.757
 4257CHOL    C148213   0.072  13.471   5.081
 4257CHOL    C248214  -0.115  13.204   5.368
 4258CHOL   ROH48215   0.880  14.113   4.386
 4258CHOL    R148216   0.670  13.784   4.570
 4258CHOL    R248217   0.868  14.026   4.724
 4258CHOL    R348218   0.550  13.640   4.954
 4258CHOL    R448219   0.737  13.955   4.995
 4258CHOL    R548220   0.641  14.126   4.681
 4258CHOL    R648221   0.477  13.890   5.050
 4258CHOL    C148222   0.583  13.722   5.348
 4258CHOL    C248223   0.277  13.638   5.633
 4259CHOL   ROH48224   9.246  27.877   6.750
 4259CHOL    R148225   9.211  28.168   6.433
 4259CHOL    R248226   9.412  27.884   6.444
 4259CHOL    R348227   9.316  28.225   6.023
 4259CHOL    R448228   9.442  27.898   6.136
 4259CHOL    R548229   9.179  27.812   6.382
 4259CHOL    R648230   9.256  27.966   5.947
 4259CHOL    C148231   9.519  28.051   5.720
 4259CHOL    C248232   9.742  28.271   5.452
 4260CHOL   ROH48233   9.810  28.609   5.853
 4260CHOL    R148234   9.502  28.895   5.951
 4260CHOL    R248235   9.625  28.811   5.636
 4260CHOL    R348236   9.193  29.127   5.767
 4260CHOL    R448237   9.370  28.933   5.509
 4260CHOL    R548238   9.460  28.633   5.706
 4260CHOL    R648239   9.112  28.925   5.596
 4260CHOL    C148240   9.039  29.218   5.406
 4260CHOL    C248241   8.683  29.363   5.229
 4261CHOL   ROH48242  12.404  29.665   3.633
 4261CHOL    R148243  12.175  29.809   3.969
 4261CHOL    R248244  12.429  29.571   3.967
 4261CHOL    R348245  12.175  29.804   4.397
 4261CHOL    R448246  12.463  29.612   4.273
 4261CHOL    R548247  12.536  29.800   3.962
 4261CHOL    R648248  12.448  29.841   4.420
 4261CHOL    C148249  12.373  29.649   4.712
 4261CHOL    C248250  12.481  29.728   5.109
 4262CHOL   ROH48251  30.110  26.590   3.648
 4262CHOL    R148252  30.006  26.382   4.011
 4262CHOL    R248253  30.247  26.629   3.966
 4262CHOL    R348254  30.066  26.403   4.434
 4262CHOL    R448255  30.247  26.679   4.272
 4262CHOL    R548256  30.022  26.742   3.985
 4262CHOL    R648257  30.039  26.678   4.448
 4262CHOL    C148258  30.266  26.612   4.716
 4262CHOL    C248259  30.541  26.408   4.972
 4263CHOL   ROH48260  25.193  20.000   7.620
 4263CHOL    R148261  25.130  19.997   7.193
 4263CHOL    R248262  24.973  19.802   7.435
 4263CHOL    R348263  24.857  19.849   6.899
 4263CHOL    R448264  24.746  19.741   7.234
 4263CHOL    R548265  24.863  20.029   7.435
 4263CHOL    R648266  24.630  19.905   7.049
 4263CHOL    C148267  24.528  19.619   6.860
 4263CHOL    C248268  24.335  19.551   6.498
 4264CHOL   ROH48269  13.065  26.727   3.776
 4264CHOL    R148270  12.799  26.961   4.021
 4264CHOL    R248271  12.951  26.658   4.098
 4264CHOL    R348272  12.661  26.992   4.425
 4264CHOL    R448273  12.897  26.711   4.398
 4264CHOL    R548274  13.120  26.842   4.134
 4264CHOL    R648275  12.909  26.945   4.538
 4264CHOL    C148276  12.688  26.809   4.784
 4264CHOL    C248277  12.478  26.963   5.145
 4265CHOL   ROH48278   1.380  31.394   4.654
 4265CHOL    R148279   1.132  31.502   4.990
 4265CHOL    R248280   1.343  31.707   4.804
 4265CHOL    R348281   0.979  31.846   5.193
 4265CHOL    R448282   1.192  31.954   4.913
 4265CHOL    R548283   1.128  31.678   4.675
 4265CHOL    R648284   0.925  31.987   4.960
 4265CHOL    C148285   0.999  32.249   5.192
 4265CHOL    C248286   0.696  32.478   5.390
 4266CHOL   ROH48287  14.145   2.519   7.022
 4266CHOL    R148288  13.961   2.513   6.632
 4266CHOL    R248289  14.157   2.763   6.773
 4266CHOL    R348290  13.970   2.719   6.257
 4266CHOL    R448291  14.207   2.879   6.490
 4266CHOL    R548292  14.311   2.582   6.686
 4266CHOL    R648293  14.246   2.747   6.254
 4266CHOL    C148294  14.138   3.038   6.076
 4266CHOL    C248295  14.109   3.194   5.652
 4267CHOL   ROH48296  16.515  16.904   7.518
 4267CHOL    R148297  16.218  16.882   7.206
 4267CHOL    R248298  16.524  17.048   7.200
 4267CHOL    R348299  16.168  16.964   6.789
 4267CHOL    R448300  16.509  17.057   6.891
 4267CHOL    R548301  16.567  16.804   7.155
 4267CHOL    R648302  16.417  16.868   6.717
 4267CHOL    C148303  16.360  17.123   6.472
 4267CHOL    C248304  16.166  17.259   6.123
 4268CHOL   ROH48305  27.137   7.256   4.300
 4268CHOL    R148306  27.103   7.030   4.666
 4268CHOL    R248307  27.389   7.091   4.476
 4268CHOL    R348308  27.346   6.858   4.973
 4268CHOL    R448309  27.563   7.016   4.722
 4268CHOL    R548310  27.344   7.295   4.617
 4268CHOL    R648311  27.522   7.071   4.986
 4268CHOL    C148312  27.731   6.795   5.075
 4268CHOL    C248313  27.824   6.427   5.298
 4269CHOL   ROH48314  14.326  26.419   6.646
 4269CHOL    R148315  14.521  26.332   6.271
 4269CHOL    R248316  14.233  26.519   6.325
 4269CHOL    R348317  14.522  26.454   5.861
 4269CHOL    R448318  14.269  26.648   6.045
 4269CHOL    R548319  14.432  26.665   6.377
 4269CHOL    R648320  14.498  26.724   5.918
 4269CHOL    C148321  14.331  26.697   5.603
 4269CHOL    C248322  14.252  26.576   5.176
 4270CHOL   ROH48323  27.893  22.366   7.068
 4270CHOL    R148324  28.051  22.152   6.728
 4270CHOL    R248325  27.764  22.349   6.744
 4270CHOL    R348326  28.004  22.123   6.303
 4270CHOL    R448327  27.765  22.371   6.435
 4270CHOL    R548328  27.962  22.502   6.720
 4270CHOL    R648329  27.977  22.396   6.265
 4270CHOL    C148330  27.779  22.262   5.999
 4270CHOL    C248331  27.799  22.180   5.581
 4271CHOL   ROH48332   9.967   1.972   6.701
 4271CHOL    R148333   9.999   2.290   6.412
 4271CHOL    R248334   9.975   1.947   6.353
 4271CHOL    R348335   9.954   2.363   5.993
 4271CHOL    R448336   9.889   2.007   6.062
 4271CHOL    R548337   9.743   2.035   6.401
 4271CHOL    R648338   9.728   2.206   5.966
 4271CHOL    C148339   9.880   2.173   5.644
 4271CHOL    C248340   9.824   2.381   5.241
 4272CHOL   ROH48341  26.285  35.430   7.115
 4272CHOL    R148342  26.091  35.636   6.789
 4272CHOL    R248343  26.372  35.432   6.777
 4272CHOL    R348344  26.083  35.648   6.362
 4272CHOL    R448345  26.330  35.398   6.472
 4272CHOL    R548346  26.168  35.284   6.785
 4272CHOL    R648347  26.097  35.373   6.331
 4272CHOL    C148348  26.263  35.491   6.037
 4272CHOL    C248349  26.042  35.620   5.683
 4273CHOL   ROH48350  35.282  13.745   7.255
 4273CHOL    R148351  35.583  13.613   6.976
 4273CHOL    R248352  35.252  13.699   6.911
 4273CHOL    R348353  35.658  13.588   6.556
 4273CHOL    R448354  35.324  13.734   6.612
 4273CHOL    R548355  35.386  13.912   6.930
 4273CHOL    R648356  35.550  13.837   6.499
 4273CHOL    C148357  35.483  13.655   6.199
 4273CHOL    C248358  35.725  13.479   5.869
 4274CHOL   ROH48359  13.933  12.488   3.891
 4274CHOL    R148360  13.619  12.462   4.186
 4274CHOL    R248361  13.955  12.536   4.236
 4274CHOL    R348362  13.538  12.560   4.594
 4274CHOL    R448363  13.883  12.657   4.512
 4274CHOL    R548364  13.840  12.745   4.155
 4274CHOL    R648365  13.665  12.805   4.584
 4274CHOL    C148366  13.714  12.708   4.925
 4274CHOL    C248367  13.480  12.632   5.321
 4275CHOL   ROH48368  22.406  15.362   7.429
 4275CHOL    R148369  22.645  15.610   7.168
 4275CHOL    R248370  22.393  15.386   7.081
 4275CHOL    R348371  22.659  15.749   6.763
 4275CHOL    R448372  22.369  15.526   6.806
 4275CHOL    R548373  22.284  15.600   7.158
 4275CHOL    R648374  22.386  15.792   6.745
 4275CHOL    C148375  22.473  15.708   6.408
 4275CHOL    C248376  22.600  15.901   6.025
 4276CHOL   ROH48377  29.379   5.402   4.205
 4276CHOL    R148378  29.336   5.086   4.496
 4276CHOL    R248379  29.575   5.339   4.486
 4276CHOL    R348380  29.476   4.971   4.883
 4276CHOL    R448381  29.635   5.288   4.786
 4276CHOL    R548382  29.363   5.436   4.583
 4276CHOL    R648383  29.463   5.227   4.989
 4276CHOL    C148384  29.733   5.082   5.173
 4276CHOL    C248385  29.781   4.957   5.577
 4277CHOL   ROH48386  34.613   5.786   3.888
 4277CHOL    R148387  34.772   5.625   4.255
 4277CHOL    R248388  34.443   5.714   4.183
 4277CHOL    R348389  34.644   5.453   4.625
 4277CHOL    R448390  34.349   5.541   4.423
 4277CHOL    R548391  34.486   5.486   4.083
 4277CHOL    R648392  34.443   5.300   4.510
 4277CHOL    C148393  34.311   5.367   4.836
 4277CHOL    C248394  34.352   5.373   5.260
 4278CHOL   ROH48395  19.560  19.826   7.290
 4278CHOL    R148396  19.714  19.967   6.913
 4278CHOL    R248397  19.553  19.666   6.980
 4278CHOL    R348398  19.698  19.882   6.495
 4278CHOL    R448399  19.495  19.635   6.677
 4278CHOL    R548400  19.377  19.846   6.958
 4278CHOL    R648401  19.427  19.825   6.494
 4278CHOL    C148402  19.549  19.614   6.232
 4278CHOL    C248403  19.763  19.526   5.832
 4279CHOL   ROH48404   5.397  21.232   4.879
 4279CHOL    R148405   5.221  21.160   5.266
 4279CHOL    R248406   5.520  21.035   5.139
 4279CHOL    R348407   5.318  20.998   5.650
 4279CHOL    R448408   5.610  20.969   5.428
 4279CHOL    R548409   5.561  21.271   5.219
 4279CHOL    R648410   5.571  21.110   5.658
 4279CHOL    C148411   5.614  20.810   5.848
 4279CHOL    C248412   5.654  20.675   6.256
 4280CHOL   ROH48413   8.777  24.438   6.476
 4280CHOL    R148414   8.871  24.246   6.101
 4280CHOL    R248415   8.558  24.329   6.228
 4280CHOL    R348416   8.690  24.141   5.727
 4280CHOL    R448417   8.440  24.305   5.942
 4280CHOL    R548418   8.659  24.538   6.129
 4280CHOL    R648419   8.549  24.378   5.703
 4280CHOL    C148420   8.336  24.146   5.535
 4280CHOL    C248421   8.218  23.968   5.148
 4281CHOL   ROH48422   4.371  32.432   7.306
 4281CHOL    R148423   4.006  32.269   7.144
 4281CHOL    R248424   4.264  32.429   6.974
 4281CHOL    R348425   3.826  32.165   6.770
 4281CHOL    R448426   4.161  32.306   6.709
 4281CHOL    R548427   4.334  32.190   7.015
 4281CHOL    R648428   4.057  32.058   6.663
 4281CHOL    C148429   3.890  32.183   6.372
 4281CHOL    C248430   3.609  32.052   6.052
 4282CHOL   ROH48431  12.253  20.066   6.757
 4282CHOL    R148432  12.435  20.028   6.368
 4282CHOL    R248433  12.388  20.317   6.556
 4282CHOL    R348434  12.672  20.249   6.089
 4282CHOL    R448435  12.603  20.459   6.383
 4282CHOL    R548436  12.592  20.198   6.645
 4282CHOL    R648437  12.836  20.361   6.282
 4282CHOL    C148438  12.833  20.614   6.030
 4282CHOL    C248439  12.848  20.864   5.701
 4283CHOL   ROH48440  23.475  25.109   3.953
 4283CHOL    R148441  23.161  25.083   4.248
 4283CHOL    R248442  23.505  25.054   4.296
 4283CHOL    R348443  23.103  25.084   4.672
 4283CHOL    R448444  23.463  25.109   4.598
 4283CHOL    R548445  23.449  25.299   4.281
 4283CHOL    R648446  23.290  25.282   4.720
 4283CHOL    C148447  23.307  25.087   5.019
 4283CHOL    C248448  23.206  24.812   5.334
 4284CHOL   ROH48449  10.145  22.548   3.127
 4284CHOL    R148450   9.880  22.675   3.443
 4284CHOL    R248451  10.100  22.405   3.442
 4284CHOL    R348452   9.805  22.611   3.859
 4284CHOL    R448453  10.085  22.397   3.752
 4284CHOL    R548454  10.233  22.614   3.491
 4284CHOL    R648455  10.073  22.604   3.930
 4284CHOL    C148456   9.925  22.385   4.171
 4284CHOL    C248457   9.772  22.238   4.564
 4285CHOL   ROH48458  20.128  18.887   4.089
 4285CHOL    R148459  19.994  19.168   4.388
 4285CHOL    R248460  20.118  18.846   4.436
 4285CHOL    R348461  20.002  19.232   4.810
 4285CHOL    R448462  20.174  18.916   4.732
 4285CHOL    R548463  20.314  19.001   4.401
 4285CHOL    R648464  20.264  19.150   4.841
 4285CHOL    C148465  20.119  19.059   5.155
 4285CHOL    C248466  20.024  19.092   5.584
 4286CHOL   ROH48467  23.884  13.230   7.174
 4286CHOL    R148468  23.951  12.936   6.866
 4286CHOL    R248469  23.959  13.282   6.838
 4286CHOL    R348470  24.104  12.901   6.468
 4286CHOL    R448471  24.119  13.253   6.574
 4286CHOL    R548472  24.179  13.207   6.936
 4286CHOL    R648473  24.315  13.075   6.509
 4286CHOL    C148474  24.244  13.124   6.162
 4286CHOL    C248475  24.297  13.034   5.730
 4287CHOL   ROH48476  23.313  21.118   7.383
 4287CHOL    R148477  23.562  21.048   7.037
 4287CHOL    R248478  23.215  21.033   7.059
 4287CHOL    R348479  23.535  21.006   6.612
 4287CHOL    R448480  23.198  21.058   6.750
 4287CHOL    R548481  23.281  21.276   7.038
 4287CHOL    R648482  23.350  21.209   6.581
 4287CHOL    C148483  23.267  20.988   6.312
 4287CHOL    C248484  23.418  20.889   5.889
 4288CHOL   ROH48485   1.318  13.757   4.526
 4288CHOL    R148486   1.240  13.890   4.929
 4288CHOL    R248487   1.394  13.595   4.826
 4288CHOL    R348488   1.345  13.800   5.334
 4288CHOL    R448489   1.514  13.563   5.110
 4288CHOL    R548490   1.565  13.781   4.814
 4288CHOL    R648491   1.612  13.753   5.279
 4288CHOL    C148492   1.553  13.536   5.556
 4288CHOL    C248493   1.479  13.451   5.959
 4289CHOL   ROH48494  20.620   8.251   7.086
 4289CHOL    R148495  20.778   8.485   6.759
 4289CHOL    R248496  20.568   8.208   6.743
 4289CHOL    R348497  20.725   8.548   6.340
 4289CHOL    R448498  20.490   8.289   6.455
 4289CHOL    R548499  20.427   8.409   6.799
 4289CHOL    R648500  20.448   8.538   6.350
 4289CHOL    C148501  20.516   8.411   6.023
 4289CHOL    C248502  20.629   8.494   5.614
 4290CHOL   ROH48503  22.085  27.066   5.659
 4290CHOL    R148504  21.909  27.038   5.266
 4290CHOL    R248505  22.121  27.285   5.390
 4290CHOL    R348506  21.942  27.209   4.875
 4290CHOL    R448507  22.185  27.370   5.099
 4290CHOL    R548508  22.262  27.086   5.324
 4290CHOL    R648509  22.219  27.216   4.876
 4290CHOL    C148510  22.137  27.496   4.670
 4290CHOL    C248511  21.950  27.682   4.324
 4291CHOL   ROH48512  20.498   1.268   6.983
 4291CHOL    R148513  20.336   1.149   6.601
 4291CHOL    R248514  20.572   1.396   6.667
 4291CHOL    R348515  20.405   1.197   6.182
 4291CHOL    R448516  20.658   1.389   6.369
 4291CHOL    R548517  20.690   1.173   6.669
 4291CHOL    R648518  20.681   1.174   6.201
 4291CHOL    C148519  20.642   1.392   5.920
 4291CHOL    C248520  20.400   1.515   5.611
 4292CHOL   ROH48521  24.452  20.554   4.076
 4292CHOL    R148522  24.652  20.666   4.442
 4292CHOL    R248523  24.434  20.400   4.388
 4292CHOL    R348524  24.739  20.514   4.832
 4292CHOL    R448525  24.541  20.266   4.646
 4292CHOL    R548526  24.661  20.333   4.302
 4292CHOL    R648527  24.796  20.257   4.744
 4292CHOL    C148528  24.667  20.199   5.072
 4292CHOL    C248529  24.959  20.105   5.397
 4293CHOL   ROH48530  34.527  26.676   3.774
 4293CHOL    R148531  34.409  26.406   4.089
 4293CHOL    R248532  34.595  26.699   4.115
 4293CHOL    R348533  34.388  26.382   4.515
 4293CHOL    R448534  34.531  26.708   4.418
 4293CHOL    R548535  34.351  26.763   4.100
 4293CHOL    R648536  34.300  26.643   4.549
 4293CHOL    C148537  34.486  26.587   4.849
 4293CHOL    C248538  34.275  26.399   5.197
 4294CHOL   ROH48539   2.184  27.732   4.328
 4294CHOL    R148540   2.392  27.995   4.598
 4294CHOL    R248541   2.117  27.793   4.665
 4294CHOL    R348542   2.426  28.084   5.015
 4294CHOL    R448543   2.178  27.816   4.968
 4294CHOL    R548544   2.324  27.648   4.671
 4294CHOL    R648545   2.420  27.819   5.096
 4294CHOL    C148546   2.269  27.986   5.374
 4294CHOL    C248547   2.446  28.090   5.745
 4295CHOL   ROH48548  19.124  18.690   7.503
 4295CHOL    R148549  19.130  18.518   7.108
 4295CHOL    R248550  18.969  18.808   7.214
 4295CHOL    R348551  19.033  18.613   6.703
 4295CHOL    R448552  18.949  18.899   6.919
 4295CHOL    R548553  19.213  18.862   7.176
 4295CHOL    R648554  19.130  18.872   6.716
 4295CHOL    C148555  18.867  18.903   6.477
 4295CHOL    C248556  18.851  18.935   6.037
 4296CHOL   ROH48557  14.646  17.586   7.451
 4296CHOL    R148558  14.413  17.598   7.088
 4296CHOL    R248559  14.754  17.657   7.127
 4296CHOL    R348560  14.461  17.611   6.663
 4296CHOL    R448561  14.793  17.611   6.823
 4296CHOL    R548562  14.718  17.408   7.123
 4296CHOL    R648563  14.671  17.430   6.659
 4296CHOL    C148564  14.744  17.638   6.377
 4296CHOL    C248565  14.554  17.667   5.968
 4297CHOL   ROH48566   8.014  35.174   6.279
 4297CHOL    R148567   8.028  35.146   5.849
 4297CHOL    R248568   7.854  34.943   6.071
 4297CHOL    R348569   7.831  34.953   5.522
 4297CHOL    R448570   7.676  34.845   5.837
 4297CHOL    R548571   7.721  35.154   6.037
 4297CHOL    R648572   7.577  34.986   5.625
 4297CHOL    C148573   7.544  34.682   5.440
 4297CHOL    C248574   7.533  34.453   5.086
 4298CHOL   ROH48575  18.648   4.020   4.539
 4298CHOL    R148576  18.757   3.821   4.906
 4298CHOL    R248577  18.489   4.036   4.849
 4298CHOL    R348578  18.601   3.730   5.294
 4298CHOL    R448579  18.353   3.927   5.105
 4298CHOL    R548580  18.426   3.808   4.762
 4298CHOL    R648581  18.346   3.672   5.202
 4298CHOL    C148582  18.281   3.799   5.530
 4298CHOL    C248583  18.204   3.566   5.882
 4299CHOL   ROH48584  20.565  34.218   7.356
 4299CHOL    R148585  20.391  34.251   6.963
 4299CHOL    R248586  20.716  34.158   7.047
 4299CHOL    R348587  20.468  34.144   6.556
 4299CHOL    R448588  20.749  34.032   6.766
 4299CHOL    R548589  20.566  33.958   7.080
 4299CHOL    R648590  20.568  33.893   6.617
 4299CHOL    C148591  20.750  33.977   6.320
 4299CHOL    C248592  20.658  33.970   5.904
 4300CHOL   ROH48593  23.492  21.163   4.046
 4300CHOL    R148594  23.551  21.372   4.418
 4300CHOL    R248595  23.431  21.049   4.369
 4300CHOL    R348596  23.566  21.301   4.840
 4300CHOL    R448597  23.496  20.984   4.666
 4300CHOL    R548598  23.683  21.043   4.351
 4300CHOL    R648599  23.708  21.064   4.818
 4300CHOL    C148600  23.515  21.009   5.114
 4300CHOL    C248601  23.339  21.202   5.460
 4301CHOL   ROH48602   4.048   1.866   6.919
 4301CHOL    R148603   4.271   1.601   6.663
 4301CHOL    R248604   4.001   1.803   6.579
 4301CHOL    R348605   4.329   1.510   6.249
 4301CHOL    R448606   4.080   1.779   6.281
 4301CHOL    R548607   4.208   1.948   6.584
 4301CHOL    R648608   4.328   1.774   6.167
 4301CHOL    C148609   4.193   1.606   5.881
 4301CHOL    C248610   4.243   1.387   5.511
 4302CHOL   ROH48611   0.475  29.718   6.835
 4302CHOL    R148612   0.750  29.893   6.552
 4302CHOL    R248613   0.614  29.572   6.550
 4302CHOL    R348614   0.915  29.824   6.163
 4302CHOL    R448615   0.688  29.547   6.250
 4302CHOL    R548616   0.441  29.731   6.457
 4302CHOL    R648617   0.677  29.736   6.053
 4302CHOL    C148618   0.919  29.552   5.865
 4302CHOL    C248619   1.198  29.661   5.565
 4303CHOL   ROH48620  25.890  27.608   6.848
 4303CHOL    R148621  26.033  27.457   6.471
 4303CHOL    R248622  25.712  27.563   6.552
 4303CHOL    R348623  25.918  27.427   6.060
 4303CHOL    R448624  25.649  27.592   6.250
 4303CHOL    R548625  25.852  27.767   6.505
 4303CHOL    R648626  25.810  27.681   6.048
 4303CHOL    C148627  25.609  27.503   5.811
 4303CHOL    C248628  25.442  27.486   5.407
 4304CHOL   ROH48629  14.018  19.500   4.417
 4304CHOL    R148630  14.221  19.271   4.722
 4304CHOL    R248631  13.924  19.451   4.750
 4304CHOL    R348632  14.157  19.108   5.112
 4304CHOL    R448633  13.855  19.290   5.005
 4304CHOL    R548634  13.871  19.230   4.640
 4304CHOL    R648635  13.898  19.026   5.060
 4304CHOL    C148636  13.886  19.098   5.410
 4304CHOL    C248637  13.905  18.997   5.831
 4305CHOL   ROH48638   8.651  10.823   5.026
 4305CHOL    R148639   8.427  11.187   4.963
 4305CHOL    R248640   8.335  10.906   5.147
 4305CHOL    R348641   8.084  11.395   5.111
 4305CHOL    R448642   8.121  11.077   5.293
 4305CHOL    R548643   8.490  11.045   5.289
 4305CHOL    R648644   8.136  11.337   5.377
 4305CHOL    C148645   7.779  11.357   5.371
 4305CHOL    C248646   7.422  11.561   5.287
 4306CHOL   ROH48647  12.966   2.025   6.879
 4306CHOL    R148648  13.038   1.639   6.699
 4306CHOL    R248649  12.909   1.925   6.549
 4306CHOL    R348650  13.061   1.450   6.316
 4306CHOL    R448651  12.979   1.806   6.272
 4306CHOL    R548652  13.160   1.949   6.561
 4306CHOL    R648653  13.196   1.660   6.196
 4306CHOL    C148654  13.008   1.524   5.923
 4306CHOL    C248655  13.239   1.218   5.691
 4307CHOL   ROH48656  12.677   2.580   3.599
 4307CHOL    R148657  12.552   2.262   3.863
 4307CHOL    R248658  12.715   2.559   3.945
 4307CHOL    R348659  12.499   2.178   4.279
 4307CHOL    R448660  12.626   2.521   4.240
 4307CHOL    R548661  12.470   2.610   3.916
 4307CHOL    R648662  12.390   2.426   4.338
 4307CHOL    C148663  12.554   2.339   4.644
 4307CHOL    C248664  12.586   2.033   4.978
 4308CHOL   ROH48665  33.804  35.296   6.830
 4308CHOL    R148666  33.469  35.102   6.640
 4308CHOL    R248667  33.690  35.333   6.502
 4308CHOL    R348668  33.300  35.036   6.252
 4308CHOL    R448669  33.603  35.242   6.219
 4308CHOL    R548670  33.802  35.107   6.501
 4308CHOL    R648671  33.544  34.992   6.129
 4308CHOL    C148672  33.350  35.134   5.864
 4308CHOL    C248673  32.973  35.031   5.696
 4309CHOL   ROH48674   7.290  27.976   6.326
 4309CHOL    R148675   7.245  28.255   6.000
 4309CHOL    R248676   7.224  27.908   5.991
 4309CHOL    R348677   7.108  28.274   5.596
 4309CHOL    R448678   7.074  27.929   5.720
 4309CHOL    R548679   7.004  27.998   6.077
 4309CHOL    R648680   6.888  28.111   5.639
 4309CHOL    C148681   6.969  28.040   5.298
 4309CHOL    C248682   6.879  28.221   4.891
 4310CHOL   ROH48683   4.402  12.053   5.333
 4310CHOL    R148684   4.627  12.206   5.668
 4310CHOL    R248685   4.330  12.328   5.535
 4310CHOL    R348686   4.590  12.478   5.996
 4310CHOL    R448687   4.279  12.482   5.799
 4310CHOL    R548688   4.274  12.131   5.682
 4310CHOL    R648689   4.330  12.406   6.056
 4310CHOL    C148690   4.339  12.749   6.155
 4310CHOL    C248691   4.474  12.865   6.554
 4311CHOL   ROH48692   3.923  27.057   3.949
 4311CHOL    R148693   3.794  26.870   4.315
 4311CHOL    R248694   4.046  27.106   4.271
 4311CHOL    R348695   3.834  26.907   4.739
 4311CHOL    R448696   4.033  27.169   4.574
 4311CHOL    R548697   3.825  27.227   4.274
 4311CHOL    R648698   3.816  27.183   4.739
 4311CHOL    C148699   4.027  27.121   5.021
 4311CHOL    C248700   4.109  26.923   5.398
 4312CHOL   ROH48701  30.533   2.657   3.976
 4312CHOL    R148702  30.451   2.908   4.317
 4312CHOL    R248703  30.394   2.567   4.283
 4312CHOL    R348704  30.350   2.882   4.732
 4312CHOL    R448705  30.375   2.543   4.592
 4312CHOL    R548706  30.638   2.599   4.337
 4312CHOL    R648707  30.520   2.671   4.784
 4312CHOL    C148708  30.257   2.615   5.019
 4312CHOL    C248709  30.170   2.740   5.427
 4313CHOL   ROH48710  24.889  17.955   7.217
 4313CHOL    R148711  24.933  18.185   6.855
 4313CHOL    R248712  25.157  17.957   6.993
 4313CHOL    R348713  25.176  18.209   6.504
 4313CHOL    R448714  25.299  17.936   6.719
 4313CHOL    R548715  24.979  17.827   6.870
 4313CHOL    R648716  25.191  17.935   6.468
 4313CHOL    C148717  25.504  18.046   6.334
 4313CHOL    C248718  25.673  18.182   5.960
 4314CHOL   ROH48719  31.996   7.259   6.587
 4314CHOL    R148720  31.791   7.457   6.263
 4314CHOL    R248721  32.103   7.302   6.258
 4314CHOL    R348722  31.808   7.502   5.838
 4314CHOL    R448723  32.086   7.287   5.949
 4314CHOL    R548724  31.926   7.123   6.240
 4314CHOL    R648725  31.870   7.236   5.790
 4314CHOL    C148726  32.032   7.403   5.518
 4314CHOL    C248727  31.958   7.604   5.136
 4315CHOL   ROH48728   9.628   3.901   3.425
 4315CHOL    R148729   9.883   3.587   3.575
 4315CHOL    R248730   9.655   3.783   3.752
 4315CHOL    R348731   9.938   3.342   3.921
 4315CHOL    R448732   9.657   3.572   3.979
 4315CHOL    R548733   9.527   3.600   3.634
 4315CHOL    R648734   9.668   3.300   3.963
 4315CHOL    C148735   9.799   3.286   4.296
 4315CHOL    C248736   9.986   3.104   4.660
 4316CHOL   ROH48737  21.682   7.312   7.057
 4316CHOL    R148738  21.882   7.533   6.745
 4316CHOL    R248739  21.649   7.277   6.712
 4316CHOL    R348740  21.862   7.603   6.324
 4316CHOL    R448741  21.597   7.366   6.420
 4316CHOL    R548742  21.524   7.490   6.761
 4316CHOL    R648743  21.586   7.619   6.316
 4316CHOL    C148744  21.663   7.488   5.992
 4316CHOL    C248745  21.715   7.513   5.548
 4317CHOL   ROH48746   5.068  16.689   7.265
 4317CHOL    R148747   5.377  16.801   6.985
 4317CHOL    R248748   5.086  16.622   6.923
 4317CHOL    R348749   5.453  16.822   6.565
 4317CHOL    R448750   5.115  16.686   6.621
 4317CHOL    R548751   5.026  16.867   6.932
 4317CHOL    R648752   5.201  16.916   6.501
 4317CHOL    C148753   5.288  16.729   6.209
 4317CHOL    C248754   5.408  16.761   5.787
 4318CHOL   ROH48755  16.067   2.086   7.172
 4318CHOL    R148756  16.127   1.873   6.802
 4318CHOL    R248757  15.969   2.179   6.850
 4318CHOL    R348758  16.104   1.930   6.378
 4318CHOL    R448759  16.003   2.240   6.548
 4318CHOL    R548760  16.218   2.219   6.849
 4318CHOL    R648761  16.213   2.184   6.383
 4318CHOL    C148762  15.995   2.201   6.101
 4318CHOL    C248763  15.848   2.113   5.719
 4319CHOL   ROH48764  13.523  22.491   7.017
 4319CHOL    R148765  13.521  22.106   6.823
 4319CHOL    R248766  13.521  22.421   6.675
 4319CHOL    R348767  13.579  21.927   6.439
 4319CHOL    R448768  13.618  22.292   6.410
 4319CHOL    R548769  13.758  22.367   6.745
 4319CHOL    R648770  13.794  22.088   6.372
 4319CHOL    C148771  13.647  22.022   6.053
 4319CHOL    C248772  13.614  21.730   5.730
 4320CHOL   ROH48773  23.189  34.865   6.524
 4320CHOL    R148774  23.056  34.501   6.334
 4320CHOL    R248775  23.046  34.826   6.208
 4320CHOL    R348776  22.936  34.351   5.952
 4320CHOL    R448777  23.013  34.709   5.923
 4320CHOL    R548778  23.280  34.737   6.178
 4320CHOL    R648779  23.130  34.489   5.811
 4320CHOL    C148780  22.863  34.469   5.574
 4320CHOL    C248781  22.615  34.242   5.319
 4321CHOL   ROH48782  26.174  32.503   3.746
 4321CHOL    R148783  26.174  32.350   4.150
 4321CHOL    R248784  26.236  32.676   4.043
 4321CHOL    R348785  26.174  32.484   4.556
 4321CHOL    R448786  26.181  32.776   4.331
 4321CHOL    R548787  25.986  32.641   4.047
 4321CHOL    R648788  25.995  32.691   4.511
 4321CHOL    C148789  26.195  32.820   4.778
 4321CHOL    C248790  26.344  32.822   5.187
 4322CHOL   ROH48791   4.087   5.396   6.681
 4322CHOL    R148792   4.386   5.443   6.374
 4322CHOL    R248793   4.112   5.228   6.376
 4322CHOL    R348794   4.462   5.340   5.966
 4322CHOL    R448795   4.138   5.199   6.069
 4322CHOL    R548796   4.031   5.458   6.311
 4322CHOL    R648797   4.203   5.387   5.882
 4322CHOL    C148798   4.309   5.128   5.659
 4322CHOL    C248799   4.488   5.016   5.274
 4323CHOL   ROH48800  12.479   0.205   6.297
 4323CHOL    R148801  12.508   0.150   5.870
 4323CHOL    R248802  12.256   0.042   6.084
 4323CHOL    R348803  12.272   0.030   5.534
 4323CHOL    R448804  12.069   0.007   5.840
 4323CHOL    R548805  12.217   0.286   6.034
 4323CHOL    R648806  12.045   0.163   5.617
 4323CHOL    C148807  11.909  -0.115   5.438
 4323CHOL    C248808  11.792  -0.033   5.066
 4324CHOL   ROH48809  24.767  21.425   7.299
 4324CHOL    R148810  24.715  21.231   6.917
 4324CHOL    R248811  24.701  21.571   6.990
 4324CHOL    R348812  24.697  21.321   6.499
 4324CHOL    R448813  24.743  21.633   6.689
 4324CHOL    R548814  24.943  21.505   6.973
 4324CHOL    R648815  24.902  21.506   6.507
 4324CHOL    C148816  24.697  21.631   6.242
 4324CHOL    C248817  24.672  21.625   5.790
 4325CHOL   ROH48818  21.946   6.221   6.776
 4325CHOL    R148819  21.668   6.335   6.466
 4325CHOL    R248820  22.012   6.388   6.476
 4325CHOL    R348821  21.660   6.473   6.062
 4325CHOL    R448822  22.009   6.434   6.170
 4325CHOL    R548823  21.971   6.149   6.403
 4325CHOL    R648824  21.864   6.307   5.976
 4325CHOL    C148825  21.903   6.591   5.762
 4325CHOL    C248826  21.802   6.625   5.360
 4326CHOL   ROH48827  16.178   9.393   7.365
 4326CHOL    R148828  16.032   9.110   7.073
 4326CHOL    R248829  16.204   9.408   7.017
 4326CHOL    R348830  16.068   9.013   6.658
 4326CHOL    R448831  16.275   9.308   6.732
 4326CHOL    R548832  16.372   9.231   7.081
 4326CHOL    R648833  16.341   9.057   6.648
 4326CHOL    C148834  16.238   9.142   6.316
 4326CHOL    C248835  16.174   9.056   5.920
 4327CHOL   ROH48836  24.384  10.714   4.250
 4327CHOL    R148837  24.245  10.881   4.623
 4327CHOL    R248838  24.562  10.758   4.547
 4327CHOL    R348839  24.393  11.027   4.997
 4327CHOL    R448840  24.675  10.912   4.791
 4327CHOL    R548841  24.544  10.992   4.454
 4327CHOL    R648842  24.609  11.159   4.886
 4327CHOL    C148843  24.734  11.068   5.209
 4327CHOL    C248844  24.843  11.430   5.385
 4328CHOL   ROH48845  12.137  23.583   6.594
 4328CHOL    R148846  12.259  23.267   6.326
 4328CHOL    R248847  12.118  23.574   6.246
 4328CHOL    R348848  12.331  23.192   5.911
 4328CHOL    R448849  12.220  23.541   5.955
 4328CHOL    R548850  12.363  23.611   6.289
 4328CHOL    R648851  12.456  23.435   5.866
 4328CHOL    C148852  12.305  23.368   5.549
 4328CHOL    C248853  12.320  23.220   5.124
 4329CHOL   ROH48854  14.345  12.520   6.973
 4329CHOL    R148855  14.392  12.754   6.614
 4329CHOL    R248856  14.494  12.427   6.672
 4329CHOL    R348857  14.494  12.712   6.201
 4329CHOL    R448858  14.514  12.383   6.366
 4329CHOL    R548859  14.247  12.423   6.619
 4329CHOL    R648860  14.352  12.477   6.167
 4329CHOL    C148861  14.620  12.439   5.933
 4329CHOL    C248862  14.674  12.538   5.509
 4330CHOL   ROH48863  18.592  19.811   7.801
 4330CHOL    R148864  18.362  19.762   7.440
 4330CHOL    R248865  18.685  19.887   7.474
 4330CHOL    R348866  18.408  19.765   7.014
 4330CHOL    R448867  18.733  19.836   7.172
 4330CHOL    R548868  18.698  19.635   7.481
 4330CHOL    R648869  18.649  19.628   7.017
 4330CHOL    C148870  18.681  19.834   6.726
 4330CHOL    C248871  18.609  19.904   6.284
 4331CHOL   ROH48872  22.264  14.152   4.171
 4331CHOL    R148873  22.406  14.335   4.535
 4331CHOL    R248874  22.252  14.026   4.496
 4331CHOL    R348875  22.490  14.241   4.943
 4331CHOL    R448876  22.363  13.941   4.773
 4331CHOL    R548877  22.495  14.001   4.432
 4331CHOL    R648878  22.605  13.995   4.887
 4331CHOL    C148879  22.463  13.941   5.211
 4331CHOL    C248880  22.599  13.936   5.636
 4332CHOL   ROH48881  22.828  23.991   7.060
 4332CHOL    R148882  22.771  23.849   6.656
 4332CHOL    R248883  23.007  24.076   6.773
 4332CHOL    R348884  22.965  23.844   6.275
 4332CHOL    R448885  23.174  24.028   6.517
 4332CHOL    R548886  23.089  23.844   6.826
 4332CHOL    R648887  23.217  23.796   6.379
 4332CHOL    C148888  23.292  23.984   6.085
 4332CHOL    C248889  23.350  23.844   5.678
 4333CHOL   ROH48890  14.318  21.978   7.139
 4333CHOL    R148891  14.707  21.842   7.010
 4333CHOL    R248892  14.396  21.698   6.947
 4333CHOL    R348893  14.888  21.568   6.737
 4333CHOL    R448894  14.522  21.540   6.712
 4333CHOL    R548895  14.427  21.890   6.786
 4333CHOL    R648896  14.711  21.619   6.531
 4333CHOL    C148897  14.797  21.277   6.473
 4333CHOL    C248898  15.042  21.112   6.153
 4334CHOL   ROH48899   6.583  31.647   6.847
 4334CHOL    R148900   6.457  31.539   6.449
 4334CHOL    R248901   6.434  31.849   6.605
 4334CHOL    R348902   6.333  31.717   6.080
 4334CHOL    R448903   6.398  31.982   6.327
 4334CHOL    R548904   6.670  31.821   6.521
 4334CHOL    R648905   6.519  31.922   6.090
 4334CHOL    C148906   6.248  32.075   5.914
 4334CHOL    C248907   6.047  32.141   5.548
 4335CHOL   ROH48908  31.754   4.142   7.146
 4335CHOL    R148909  31.656   4.348   6.780
 4335CHOL    R248910  31.903   4.109   6.833
 4335CHOL    R348911  31.731   4.330   6.359
 4335CHOL    R448912  31.916   4.060   6.527
 4335CHOL    R548913  31.683   3.988   6.806
 4335CHOL    R648914  31.713   4.055   6.344
 4335CHOL    C148915  31.947   4.129   6.084
 4335CHOL    C248916  31.791   4.249   5.693
 4336CHOL   ROH48917  27.832  16.349   3.932
 4336CHOL    R148918  28.120  16.495   4.218
 4336CHOL    R248919  27.819  16.333   4.281
 4336CHOL    R348920  28.220  16.467   4.633
 4336CHOL    R448921  27.918  16.267   4.567
 4336CHOL    R548922  27.990  16.158   4.220
 4336CHOL    R648923  28.168  16.196   4.651
 4336CHOL    C148924  28.088  16.310   4.980
 4336CHOL    C248925  28.157  16.438   5.386
 4337CHOL   ROH48926  26.425  29.193   6.604
 4337CHOL    R148927  26.603  29.482   6.339
 4337CHOL    R248928  26.472  29.170   6.260
 4337CHOL    R348929  26.645  29.568   5.922
 4337CHOL    R448930  26.453  29.257   5.963
 4337CHOL    R548931  26.280  29.331   6.282
 4337CHOL    R648932  26.384  29.499   5.858
 4337CHOL    C148933  26.560  29.418   5.557
 4337CHOL    C248934  26.615  29.646   5.211
 4338CHOL   ROH48935  11.857   2.925   6.865
 4338CHOL    R148936  11.881   2.865   6.438
 4338CHOL    R248937  11.774   3.149   6.610
 4338CHOL    R348938  11.865   3.084   6.071
 4338CHOL    R448939  11.817   3.316   6.353
 4338CHOL    R548940  12.027   3.149   6.608
 4338CHOL    R648941  12.015   3.297   6.165
 4338CHOL    C148942  11.801   3.455   5.926
 4338CHOL    C248943  11.776   3.629   5.541
 4339CHOL   ROH48944  34.275  23.733   7.370
 4339CHOL    R148945  34.183  23.500   7.018
 4339CHOL    R248946  34.269  23.837   7.038
 4339CHOL    R348947  34.211  23.519   6.592
 4339CHOL    R448948  34.341  23.832   6.736
 4339CHOL    R548949  34.481  23.702   7.053
 4339CHOL    R648950  34.462  23.636   6.591
 4339CHOL    C148951  34.316  23.768   6.292
 4339CHOL    C248952  34.221  23.633   5.890
 4340CHOL   ROH48953  32.253   5.964   6.776
 4340CHOL    R148954  32.011   6.149   6.470
 4340CHOL    R248955  32.343   6.048   6.449
 4340CHOL    R348956  32.009   6.227   6.049
 4340CHOL    R448957  32.321   6.053   6.140
 4340CHOL    R548958  32.197   5.844   6.419
 4340CHOL    R648959  32.112   5.980   5.980
 4340CHOL    C148960  32.239   6.190   5.720
 4340CHOL    C248961  32.209   6.244   5.297
 4341CHOL   ROH48962  27.833  32.135   3.762
 4341CHOL    R148963  28.020  31.880   4.056
 4341CHOL    R248964  27.929  32.215   4.087
 4341CHOL    R348965  28.111  31.867   4.473
 4341CHOL    R448966  27.944  32.186   4.396
 4341CHOL    R548967  27.722  32.075   4.120
 4341CHOL    R648968  27.869  31.975   4.553
 4341CHOL    C148969  28.091  32.089   4.809
 4341CHOL    C248970  28.245  32.073   5.196
 4342CHOL   ROH48971  28.137   1.824   6.983
 4342CHOL    R148972  28.102   1.694   6.573
 4342CHOL    R248973  28.337   1.911   6.710
 4342CHOL    R348974  28.321   1.692   6.206
 4342CHOL    R448975  28.519   1.864   6.464
 4342CHOL    R548976  28.409   1.675   6.763
 4342CHOL    R648977  28.564   1.634   6.324
 4342CHOL    C148978  28.663   1.827   6.040
 4342CHOL    C248979  28.698   1.963   5.648
 4343CHOL   ROH48980   5.149   5.000   3.627
 4343CHOL    R148981   5.368   5.286   3.864
 4343CHOL    R248982   5.120   5.066   3.968
 4343CHOL    R348983   5.445   5.390   4.272
 4343CHOL    R448984   5.215   5.103   4.261
 4343CHOL    R548985   5.336   4.938   3.952
 4343CHOL    R648986   5.469   5.128   4.358
 4343CHOL    C148987   5.341   5.292   4.649
 4343CHOL    C248988   5.347   5.526   4.999
 4344CHOL   ROH48989  28.440  25.492   3.164
 4344CHOL    R148990  28.160  25.736   3.382
 4344CHOL    R248991  28.439  25.568   3.504
 4344CHOL    R348992  28.112  25.929   3.761
 4344CHOL    R448993  28.433  25.749   3.756
 4344CHOL    R548994  28.517  25.782   3.397
 4344CHOL    R648995  28.374  26.015   3.776
 4344CHOL    C148996  28.290  25.969   4.121
 4344CHOL    C248997  28.085  26.188   4.435
 4345CHOL   ROH48998   5.656   3.272   7.235
 4345CHOL    R148999   5.425   3.423   6.904
 4345CHOL    R249000   5.642   3.151   6.908
 4345CHOL    R349001   5.299   3.313   6.510
 4345CHOL    R449002   5.509   3.045   6.649
 4345CHOL    R549003   5.422   3.077   7.008
 4345CHOL    R649004   5.246   3.049   6.576
 4345CHOL    C149005   5.343   3.024   6.232
 4345CHOL    C249006   5.436   3.155   5.841
 4346CHOL   ROH49007  33.940   4.366   6.414
 4346CHOL    R149008  33.871   4.110   6.075
 4346CHOL    R249009  33.874   4.457   6.084
 4346CHOL    R349010  33.847   4.123   5.648
 4346CHOL    R449011  33.913   4.462   5.777
 4346CHOL    R549012  34.113   4.377   6.076
 4346CHOL    R649013  34.061   4.296   5.619
 4346CHOL    C149014  33.857   4.381   5.338
 4346CHOL    C249015  33.849   4.304   4.893
 4347CHOL   ROH49016  33.921  26.168   7.310
 4347CHOL    R149017  33.629  26.364   7.061
 4347CHOL    R249018  33.965  26.306   6.993
 4347CHOL    R349019  33.573  26.499   6.659
 4347CHOL    R449020  33.909  26.351   6.692
 4347CHOL    R549021  33.838  26.092   6.947
 4347CHOL    R649022  33.692  26.277   6.543
 4347CHOL    C149023  33.767  26.534   6.307
 4347CHOL    C249024  33.622  26.815   5.983
 4348CHOL   ROH49025  27.349   6.863   7.226
 4348CHOL    R149026  27.138   7.060   6.906
 4348CHOL    R249027  27.403   6.835   6.883
 4348CHOL    R349028  27.089   7.043   6.481
 4348CHOL    R449029  27.329   6.785   6.586
 4348CHOL    R549030  27.191   6.703   6.920
 4348CHOL    R649031  27.083   6.767   6.470
 4348CHOL    C149032  27.227   6.853   6.154
 4348CHOL    C249033  27.184   7.036   5.786
 4349CHOL   ROH49034  32.251   8.378   6.945
 4349CHOL    R149035  32.263   8.553   6.551
 4349CHOL    R249036  32.363   8.234   6.648
 4349CHOL    R349037  32.318   8.444   6.141
 4349CHOL    R449038  32.349   8.144   6.352
 4349CHOL    R549039  32.112   8.233   6.622
 4349CHOL    R649040  32.168   8.212   6.159
 4349CHOL    C149041  32.407   8.128   5.906
 4349CHOL    C249042  32.579   8.170   5.509
 4350CHOL   ROH49043   2.887  20.474   7.497
 4350CHOL    R149044   2.592  20.650   7.237
 4350CHOL    R249045   2.856  20.441   7.151
 4350CHOL    R349046   2.441  20.620   6.837
 4350CHOL    R449047   2.716  20.379   6.882
 4350CHOL    R549048   2.669  20.297   7.240
 4350CHOL    R649049   2.450  20.344   6.830
 4350CHOL    C149050   2.507  20.430   6.488
 4350CHOL    C249051   2.262  20.377   6.118
 4351CHOL   ROH49052  23.729  34.989   7.128
 4351CHOL    R149053  23.540  35.064   6.747
 4351CHOL    R249054  23.879  35.024   6.816
 4351CHOL    R349055  23.626  35.059   6.328
 4351CHOL    R449056  23.929  34.966   6.515
 4351CHOL    R549057  23.774  34.795   6.805
 4351CHOL    R649058  23.775  34.826   6.338
 4351CHOL    C149059  23.928  35.002   6.067
 4351CHOL    C249060  23.877  35.255   5.716
 4352CHOL   ROH49061  21.685   2.434   6.824
 4352CHOL    R149062  21.492   2.383   6.442
 4352CHOL    R249063  21.826   2.457   6.506
 4352CHOL    R349064  21.584   2.331   6.027
 4352CHOL    R449065  21.897   2.365   6.218
 4352CHOL    R549066  21.793   2.209   6.537
 4352CHOL    R649067  21.795   2.158   6.073
 4352CHOL    C149068  21.895   2.322   5.771
 4352CHOL    C249069  21.868   2.303   5.345
 4353CHOL   ROH49070   2.394  23.920   4.531
 4353CHOL    R149071   2.792  23.977   4.687
 4353CHOL    R249072   2.504  23.887   4.860
 4353CHOL    R349073   3.025  23.901   5.038
 4353CHOL    R449074   2.681  23.782   5.092
 4353CHOL    R549075   2.594  23.681   4.747
 4353CHOL    R649076   2.919  23.650   5.082
 4353CHOL    C149077   2.994  23.759   5.414
 4353CHOL    C249078   3.223  23.995   5.714
 4354CHOL   ROH49079  12.929  30.211   6.954
 4354CHOL    R149080  12.727  30.194   6.573
 4354CHOL    R249081  12.988  30.402   6.669
 4354CHOL    R349082  12.766  30.332   6.170
 4354CHOL    R449083  13.049  30.457   6.370
 4354CHOL    R549084  13.086  30.177   6.609
 4354CHOL    R649085  13.038  30.286   6.157
 4354CHOL    C149086  12.997  30.565   5.937
 4354CHOL    C249087  12.864  30.699   5.523
 4355CHOL   ROH49088  18.526  21.271   3.922
 4355CHOL    R149089  18.500  21.592   4.209
 4355CHOL    R249090  18.288  21.318   4.172
 4355CHOL    R349091  18.300  21.698   4.571
 4355CHOL    R449092  18.184  21.367   4.460
 4355CHOL    R549093  18.493  21.242   4.299
 4355CHOL    R649094  18.320  21.445   4.683
 4355CHOL    C149095  18.015  21.567   4.825
 4355CHOL    C249096  17.812  21.775   5.153
 4356CHOL   ROH49097  28.544  25.331   7.083
 4356CHOL    R149098  28.639  25.194   6.684
 4356CHOL    R249099  28.562  25.517   6.789
 4356CHOL    R349100  28.743  25.345   6.298
 4356CHOL    R449101  28.689  25.627   6.528
 4356CHOL    R549102  28.804  25.473   6.845
 4356CHOL    R649103  28.912  25.542   6.395
 4356CHOL    C149104  28.788  25.690   6.095
 4356CHOL    C249105  28.822  25.767   5.682
 4357CHOL   ROH49106   5.082  33.663   3.543
 4357CHOL    R149107   5.083  33.955   3.861
 4357CHOL    R249108   5.146  33.613   3.883
 4357CHOL    R349109   5.205  34.001   4.269
 4357CHOL    R449110   5.283  33.659   4.157
 4357CHOL    R549111   5.356  33.726   3.800
 4357CHOL    R649112   5.444  33.865   4.237
 4357CHOL    C149113   5.361  33.795   4.578
 4357CHOL    C249114   5.323  33.913   4.985
 4358CHOL   ROH49115  33.280  22.394   7.185
 4358CHOL    R149116  33.063  22.538   6.841
 4358CHOL    R249117  33.398  22.446   6.860
 4358CHOL    R349118  33.098  22.571   6.416
 4358CHOL    R449119  33.404  22.418   6.552
 4358CHOL    R549120  33.260  22.235   6.840
 4358CHOL    R649121  33.213  22.321   6.383
 4358CHOL    C149122  33.358  22.506   6.114
 4358CHOL    C249123  33.300  22.615   5.688
 4359CHOL   ROH49124  18.918  12.806   4.775
 4359CHOL    R149125  19.153  13.150   4.664
 4359CHOL    R249126  18.886  13.135   4.886
 4359CHOL    R349127  19.230  13.553   4.785
 4359CHOL    R449128  18.978  13.404   5.009
 4359CHOL    R549129  19.092  13.052   5.006
 4359CHOL    R649130  19.231  13.496   5.056
 4359CHOL    C149131  19.110  13.832   5.050
 4359CHOL    C249132  19.246  14.229   5.204
 4360CHOL   ROH49133  31.509  30.994   7.173
 4360CHOL    R149134  31.619  31.093   6.768
 4360CHOL    R249135  31.621  30.781   6.921
 4360CHOL    R349136  31.701  30.908   6.391
 4360CHOL    R449137  31.626  30.648   6.641
 4360CHOL    R549138  31.384  30.833   6.853
 4360CHOL    R649139  31.496  30.723   6.412
 4360CHOL    C149140  31.739  30.546   6.219
 4360CHOL    C249141  31.886  30.400   5.836
 4361CHOL   ROH49142  20.544   2.800   6.560
 4361CHOL    R149143  20.617   2.436   6.340
 4361CHOL    R249144  20.474   2.732   6.225
 4361CHOL    R349145  20.626   2.287   5.939
 4361CHOL    R449146  20.532   2.643   5.934
 4361CHOL    R549147  20.724   2.763   6.227
 4361CHOL    R649148  20.749   2.512   5.834
 4361CHOL    C149149  20.552   2.398   5.558
 4361CHOL    C249150  20.513   2.209   5.163
 4362CHOL   ROH49151  12.472  30.510   7.128
 4362CHOL    R149152  12.279  30.678   6.781
 4362CHOL    R249153  12.620  30.655   6.847
 4362CHOL    R349154  12.366  30.811   6.384
 4362CHOL    R449155  12.677  30.699   6.546
 4362CHOL    R549156  12.542  30.431   6.763
 4362CHOL    R649157  12.541  30.604   6.329
 4362CHOL    C149158  12.674  30.871   6.131
 4362CHOL    C249159  12.629  31.071   5.723
 4363CHOL   ROH49160  29.368  31.064   3.494
 4363CHOL    R149161  29.501  30.878   3.860
 4363CHOL    R249162  29.542  31.209   3.760
 4363CHOL    R349163  29.653  30.978   4.247
 4363CHOL    R449164  29.598  31.287   4.055
 4363CHOL    R549165  29.307  31.183   3.850
 4363CHOL    R649166  29.482  31.193   4.284
 4363CHOL    C149167  29.771  31.293   4.469
 4363CHOL    C249168  29.798  31.305   4.884
 4364CHOL   ROH49169  22.953   7.897   3.818
 4364CHOL    R149170  23.341   7.928   4.004
 4364CHOL    R249171  23.030   8.002   4.142
 4364CHOL    R349172  23.521   7.980   4.388
 4364CHOL    R449173  23.155   7.985   4.425
 4364CHOL    R549174  23.062   7.752   4.152
 4364CHOL    R649175  23.344   7.813   4.520
 4364CHOL    C149176  23.429   8.048   4.775
 4364CHOL    C249177  23.760   8.134   5.081
 4365CHOL   ROH49178   5.202  19.740   6.577
 4365CHOL    R149179   5.227  19.445   6.264
 4365CHOL    R249180   5.100  19.768   6.245
 4365CHOL    R349181   5.191  19.407   5.840
 4365CHOL    R449182   5.127  19.756   5.937
 4365CHOL    R549183   5.351  19.782   6.230
 4365CHOL    R649184   5.324  19.643   5.785
 4365CHOL    C149185   5.096  19.618   5.510
 4365CHOL    C249186   4.969  19.520   5.099
 4366CHOL   ROH49187  10.132  14.837   7.060
 4366CHOL    R149188  10.386  14.605   6.801
 4366CHOL    R249189  10.116  14.804   6.713
 4366CHOL    R349190  10.482  14.554   6.387
 4366CHOL    R449191  10.220  14.810   6.421
 4366CHOL    R549192  10.315  14.955   6.749
 4366CHOL    R649193  10.476  14.825   6.330
 4366CHOL    C149194  10.373  14.679   6.020
 4366CHOL    C249195  10.421  14.597   5.603
 4367CHOL   ROH49196  16.844  24.988   7.092
 4367CHOL    R149197  16.855  25.003   6.661
 4367CHOL    R249198  16.861  24.722   6.867
 4367CHOL    R349199  16.813  24.749   6.319
 4367CHOL    R449200  16.776  24.548   6.625
 4367CHOL    R549201  16.621  24.800   6.848
 4367CHOL    R649202  16.601  24.605   6.424
 4367CHOL    C149203  16.762  24.362   6.216
 4367CHOL    C249204  16.874  24.217   5.804
 4368CHOL   ROH49205  23.246  33.773   3.935
 4368CHOL    R149206  23.369  33.816   4.347
 4368CHOL    R249207  23.464  34.008   4.073
 4368CHOL    R349208  23.567  34.091   4.607
 4368CHOL    R449209  23.556  34.232   4.267
 4368CHOL    R549210  23.236  34.087   4.149
 4368CHOL    R649211  23.443  34.315   4.501
 4368CHOL    C149212  23.759  34.446   4.606
 4368CHOL    C249213  23.980  34.504   4.980
 4369CHOL   ROH49214   5.509  31.010   7.320
 4369CHOL    R149215   5.410  31.362   7.091
 4369CHOL    R249216   5.565  31.070   6.981
 4369CHOL    R349217   5.381  31.497   6.686
 4369CHOL    R449218   5.493  31.146   6.690
 4369CHOL    R549219   5.317  31.027   6.993
 4369CHOL    R649220   5.266  31.263   6.592
 4369CHOL    C149221   5.449  31.378   6.307
 4369CHOL    C249222   5.445  31.545   5.914
 4370CHOL   ROH49223   2.183   3.618   7.152
 4370CHOL    R149224   2.408   3.463   6.819
 4370CHOL    R249225   2.134   3.677   6.812
 4370CHOL    R349226   2.464   3.523   6.399
 4370CHOL    R449227   2.210   3.760   6.523
 4370CHOL    R549228   2.338   3.814   6.866
 4370CHOL    R649229   2.458   3.799   6.415
 4370CHOL    C149230   2.323   3.739   6.089
 4370CHOL    C249231   2.484   3.624   5.698
 4371CHOL   ROH49232   1.472   2.966   3.592
 4371CHOL    R149233   1.517   2.785   3.981
 4371CHOL    R249234   1.513   3.123   3.900
 4371CHOL    R349235   1.508   2.885   4.396
 4371CHOL    R449236   1.451   3.189   4.197
 4371CHOL    R549237   1.274   3.041   3.907
 4371CHOL    R649238   1.291   3.056   4.374
 4371CHOL    C149239   1.473   3.200   4.645
 4371CHOL    C249240   1.331   3.111   5.047
 4372CHOL   ROH49241  15.533  29.747   4.071
 4372CHOL    R149242  15.479  29.982   4.428
 4372CHOL    R249243  15.307  29.696   4.331
 4372CHOL    R349244  15.288  29.966   4.810
 4372CHOL    R449245  15.214  29.657   4.624
 4372CHOL    R549246  15.528  29.625   4.430
 4372CHOL    R649247  15.351  29.701   4.856
 4372CHOL    C149248  15.041  29.736   5.031
 4372CHOL    C249249  15.060  29.822   5.455
 4373CHOL   ROH49250  23.182  26.023   3.608
 4373CHOL    R149251  23.217  26.305   3.933
 4373CHOL    R249252  23.191  25.958   3.951
 4373CHOL    R349253  23.297  26.319   4.353
 4373CHOL    R449254  23.302  25.968   4.240
 4373CHOL    R549255  23.430  26.015   3.896
 4373CHOL    R649256  23.497  26.128   4.345
 4373CHOL    C149257  23.360  26.080   4.672
 4373CHOL    C249258  23.394  26.266   5.075
 4374CHOL   ROH49259  16.667  15.416   7.017
 4374CHOL    R149260  16.849  15.604   6.675
 4374CHOL    R249261  16.551  15.425   6.688
 4374CHOL    R349262  16.760  15.720   6.272
 4374CHOL    R449263  16.466  15.555   6.420
 4374CHOL    R549264  16.506  15.659   6.773
 4374CHOL    R649265  16.505  15.810   6.331
 4374CHOL    C149266  16.470  15.697   5.993
 4374CHOL    C249267  16.606  15.856   5.578
 4375CHOL   ROH49268  28.827  14.918   7.025
 4375CHOL    R149269  29.011  15.154   6.714
 4375CHOL    R249270  28.964  14.809   6.723
 4375CHOL    R349271  29.140  15.125   6.308
 4375CHOL    R449272  29.005  14.800   6.416
 4375CHOL    R549273  28.746  14.916   6.654
 4375CHOL    R649274  28.922  14.976   6.225
 4375CHOL    C149275  29.180  14.860   6.006
 4375CHOL    C249276  29.515  15.005   5.771
 4376CHOL   ROH49277   0.773  34.286   7.011
 4376CHOL    R149278   0.927  34.247   6.610
 4376CHOL    R249279   0.613  34.157   6.729
 4376CHOL    R349280   0.797  34.168   6.211
 4376CHOL    R449281   0.508  34.154   6.438
 4376CHOL    R549282   0.612  34.406   6.688
 4376CHOL    R649283   0.568  34.321   6.231
 4376CHOL    C149284   0.469  34.067   5.999
 4376CHOL    C249285   0.396  33.796   5.639
 4377CHOL   ROH49286  12.484  27.072   6.775
 4377CHOL    R149287  12.558  27.404   6.509
 4377CHOL    R249288  12.686  27.081   6.491
 4377CHOL    R349289  12.726  27.490   6.125
 4377CHOL    R449290  12.758  27.130   6.193
 4377CHOL    R549291  12.452  27.078   6.396
 4377CHOL    R649292  12.619  27.267   6.002
 4377CHOL    C149293  12.922  27.316   5.819
 4377CHOL    C249294  13.087  27.467   5.419
 4378CHOL   ROH49295  29.639  19.782   6.566
 4378CHOL    R149296  29.821  19.535   6.263
 4378CHOL    R249297  29.557  19.759   6.228
 4378CHOL    R349298  29.835  19.487   5.838
 4378CHOL    R449299  29.606  19.763   5.922
 4378CHOL    R549300  29.772  19.891   6.228
 4378CHOL    R649301  29.842  19.758   5.785
 4378CHOL    C149302  29.671  19.629   5.498
 4378CHOL    C249303  29.586  19.460   5.089
 4379CHOL   ROH49304  28.767  11.532   7.364
 4379CHOL    R149305  28.534  11.294   7.090
 4379CHOL    R249306  28.711  11.586   7.024
 4379CHOL    R349307  28.463  11.244   6.671
 4379CHOL    R449308  28.704  11.518   6.722
 4379CHOL    R549309  28.875  11.395   7.026
 4379CHOL    R649310  28.728  11.275   6.599
 4379CHOL    C149311  28.557  11.404   6.313
 4379CHOL    C249312  28.429  11.229   5.938
 4380CHOL   ROH49313  34.719  32.847   7.042
 4380CHOL    R149314  35.028  32.756   6.755
 4380CHOL    R249315  34.689  32.677   6.739
 4380CHOL    R349316  35.077  32.620   6.352
 4380CHOL    R449317  34.718  32.632   6.434
 4380CHOL    R549318  34.716  32.918   6.669
 4380CHOL    R649319  34.867  32.770   6.252
 4380CHOL    C149320  34.866  32.485   6.036
 4380CHOL    C249321  34.951  32.460   5.599
 4381CHOL   ROH49322   9.784   6.248   6.974
 4381CHOL    R149323  10.103   6.112   6.718
 4381CHOL    R249324   9.821   6.296   6.630
 4381CHOL    R349325  10.262   6.171   6.325
 4381CHOL    R449326   9.963   6.382   6.368
 4381CHOL    R549327   9.990   6.455   6.730
 4381CHOL    R649328  10.225   6.446   6.326
 4381CHOL    C149329  10.188   6.366   5.980
 4381CHOL    C249330  10.374   6.310   5.570
 4382CHOL   ROH49331  11.664  26.828   7.111
 4382CHOL    R149332  11.370  26.881   6.800
 4382CHOL    R249333  11.708  26.809   6.766
 4382CHOL    R349334  11.316  26.817   6.381
 4382CHOL    R449335  11.655  26.711   6.477
 4382CHOL    R549336  11.588  26.594   6.822
 4382CHOL    R649337  11.442  26.571   6.378
 4382CHOL    C149338  11.513  26.695   6.051
 4382CHOL    C249339  11.262  26.594   5.696
 4383CHOL   ROH49340  18.266  16.482   3.938
 4383CHOL    R149341  18.343  16.321   4.330
 4383CHOL    R249342  18.099  16.550   4.236
 4383CHOL    R349343  18.165  16.294   4.718
 4383CHOL    R449344  17.943  16.486   4.496
 4383CHOL    R549345  18.017  16.319   4.174
 4383CHOL    R649346  17.910  16.247   4.623
 4383CHOL    C149347  17.845  16.419   4.930
 4383CHOL    C249348  18.066  16.521   5.286
 4384CHOL   ROH49349  30.162  30.492   6.803
 4384CHOL    R149350  30.388  30.718   6.513
 4384CHOL    R249351  30.186  30.440   6.459
 4384CHOL    R349352  30.428  30.769   6.091
 4384CHOL    R449353  30.173  30.513   6.158
 4384CHOL    R549354  30.037  30.642   6.477
 4384CHOL    R649355  30.156  30.759   6.040
 4384CHOL    C149356  30.294  30.623   5.740
 4384CHOL    C249357  30.453  30.908   5.445
 4385CHOL   ROH49358  25.020  29.668   3.300
 4385CHOL    R149359  25.014  29.715   3.729
 4385CHOL    R249360  25.135  29.937   3.490
 4385CHOL    R349361  25.068  30.013   4.031
 4385CHOL    R449362  25.120  30.164   3.700
 4385CHOL    R549363  24.884  29.961   3.500
 4385CHOL    R649364  24.932  30.210   3.892
 4385CHOL    C149365  25.171  30.400   4.079
 4385CHOL    C249366  25.377  30.535   4.464
 4386CHOL   ROH49367  20.468   0.115   7.250
 4386CHOL    R149368  20.390   0.315   6.876
 4386CHOL    R249369  20.525  -0.002   6.926
 4386CHOL    R349370  20.366   0.237   6.456
 4386CHOL    R449371  20.455  -0.073   6.633
 4386CHOL    R549372  20.275  -0.018   6.951
 4386CHOL    R649373  20.236  -0.005   6.486
 4386CHOL    C149374  20.423  -0.055   6.185
 4386CHOL    C249375  20.277  -0.135   5.776
 4387CHOL   ROH49376   2.731  31.923   7.421
 4387CHOL    R149377   2.959  31.862   7.060
 4387CHOL    R249378   2.618  31.919   7.091
 4387CHOL    R349379   2.926  31.901   6.635
 4387CHOL    R449380   2.608  32.000   6.792
 4387CHOL    R549381   2.735  32.141   7.110
 4387CHOL    R649382   2.789  32.142   6.646
 4387CHOL    C149383   2.660  31.994   6.346
 4387CHOL    C249384   2.628  31.894   5.927
 4388CHOL   ROH49385  18.705  21.177   7.386
 4388CHOL    R149386  18.564  21.237   6.982
 4388CHOL    R249387  18.882  21.144   7.087
 4388CHOL    R349388  18.678  21.163   6.577
 4388CHOL    R449389  18.942  21.041   6.801
 4388CHOL    R549390  18.736  20.939   7.091
 4388CHOL    R649391  18.778  20.910   6.627
 4388CHOL    C149392  18.982  21.020   6.354
 4388CHOL    C249393  18.791  20.907   5.976
 4389CHOL   ROH49394  29.923  17.792   6.782
 4389CHOL    R149395  29.758  17.652   6.409
 4389CHOL    R249396  30.035  17.856   6.458
 4389CHOL    R349397  29.853  17.624   5.994
 4389CHOL    R449398  30.131  17.788   6.171
 4389CHOL    R549399  30.106  17.617   6.499
 4389CHOL    R649400  30.117  17.552   6.036
 4389CHOL    C149401  30.136  17.729   5.726
 4389CHOL    C249402  30.017  17.773   5.286
 4390CHOL   ROH49403  10.381  28.985   3.530
 4390CHOL    R149404  10.551  29.131   3.899
 4390CHOL    R249405  10.228  29.017   3.842
 4390CHOL    R349406  10.471  29.146   4.319
 4390CHOL    R449407  10.192  28.978   4.147
 4390CHOL    R549408  10.377  28.816   3.871
 4390CHOL    R649409  10.371  28.888   4.332
 4390CHOL    C149410  10.187  29.054   4.590
 4390CHOL    C249411  10.157  29.168   4.985
 4391CHOL   ROH49412  10.110  31.954   6.877
 4391CHOL    R149413  10.157  32.316   6.649
 4391CHOL    R249414  10.200  31.988   6.542
 4391CHOL    R349415  10.197  32.451   6.245
 4391CHOL    R449416  10.173  32.084   6.249
 4391CHOL    R549417   9.952  32.038   6.542
 4391CHOL    R649418  10.009  32.275   6.143
 4391CHOL    C149419  10.233  32.314   5.867
 4391CHOL    C249420  10.464  32.600   5.651
 4392CHOL   ROH49421  26.678   7.311   7.025
 4392CHOL    R149422  26.480   7.297   6.642
 4392CHOL    R249423  26.784   7.447   6.721
 4392CHOL    R349424  26.554   7.372   6.227
 4392CHOL    R449425  26.857   7.450   6.420
 4392CHOL    R549426  26.824   7.200   6.692
 4392CHOL    R649427  26.807   7.262   6.229
 4392CHOL    C149428  26.836   7.514   5.976
 4392CHOL    C249429  26.804   7.519   5.540
 4393CHOL   ROH49430   2.917  21.534   7.127
 4393CHOL    R149431   2.687  21.458   6.771
 4393CHOL    R249432   2.865  21.745   6.854
 4393CHOL    R349433   2.620  21.615   6.378
 4393CHOL    R449434   2.862  21.829   6.556
 4393CHOL    R549435   3.029  21.574   6.766
 4393CHOL    R649436   2.886  21.674   6.332
 4393CHOL    C149437   2.718  21.926   6.141
 4393CHOL    C249438   2.729  21.777   5.745
 4394CHOL   ROH49439  27.821  10.567   7.388
 4394CHOL    R149440  27.732  10.854   7.077
 4394CHOL    R249441  27.821  10.519   7.042
 4394CHOL    R349442  27.648  10.874   6.659
 4394CHOL    R449443  27.707  10.523   6.754
 4394CHOL    R549444  27.576  10.529   7.100
 4394CHOL    R649445  27.485  10.650   6.657
 4394CHOL    C149446  27.626  10.643   6.329
 4394CHOL    C249447  27.623  10.773   5.912
 4395CHOL   ROH49448   8.599   2.504   6.753
 4395CHOL    R149449   8.414   2.293   6.425
 4395CHOL    R249450   8.435   2.637   6.475
 4395CHOL    R349451   8.257   2.361   6.033
 4395CHOL    R449452   8.374   2.680   6.174
 4395CHOL    R549453   8.656   2.557   6.381
 4395CHOL    R649454   8.458   2.535   5.958
 4395CHOL    C149455   8.178   2.656   5.770
 4395CHOL    C249456   7.887   2.708   5.454
 4396CHOL   ROH49457  18.144  26.626   7.052
 4396CHOL    R149458  18.363  26.830   6.741
 4396CHOL    R249459  18.138  26.566   6.709
 4396CHOL    R349460  18.374  26.871   6.316
 4396CHOL    R449461  18.107  26.634   6.408
 4396CHOL    R549462  18.005  26.779   6.733
 4396CHOL    R649463  18.099  26.878   6.286
 4396CHOL    C149464  18.203  26.728   5.979
 4396CHOL    C249465  18.391  26.893   5.632
 4397CHOL   ROH49466  16.121  23.813   7.150
 4397CHOL    R149467  16.167  23.606   6.774
 4397CHOL    R249468  16.006  23.908   6.835
 4397CHOL    R349469  16.122  23.668   6.353
 4397CHOL    R449470  16.024  23.974   6.533
 4397CHOL    R549471  16.254  23.953   6.822
 4397CHOL    R649472  16.227  23.924   6.356
 4397CHOL    C149473  15.994  23.941   6.085
 4397CHOL    C249474  15.994  23.916   5.633
 4398CHOL   ROH49475  17.278  28.029   7.040
 4398CHOL    R149476  17.382  28.202   6.660
 4398CHOL    R249477  17.132  27.971   6.729
 4398CHOL    R349478  17.232  28.243   6.261
 4398CHOL    R449479  16.995  28.044   6.460
 4398CHOL    R549480  17.046  28.200   6.792
 4398CHOL    R649481  16.971  28.287   6.339
 4398CHOL    C149482  16.929  28.125   6.024
 4398CHOL    C249483  16.966  28.281   5.616
 4399CHOL   ROH49484   1.590   6.117   7.007
 4399CHOL    R149485   1.364   6.070   6.642
 4399CHOL    R249486   1.701   6.152   6.678
 4399CHOL    R349487   1.420   6.030   6.220
 4399CHOL    R449488   1.748   6.069   6.383
 4399CHOL    R549489   1.678   5.902   6.706
 4399CHOL    R649490   1.639   5.862   6.242
 4399CHOL    C149491   1.707   6.036   5.937
 4399CHOL    C249492   1.799   6.052   5.514
 4400CHOL   ROH49493  12.365  18.628   6.910
 4400CHOL    R149494  12.396  18.699   6.486
 4400CHOL    R249495  12.630  18.550   6.696
 4400CHOL    R349496  12.634  18.590   6.147
 4400CHOL    R449497  12.769  18.427   6.449
 4400CHOL    R549498  12.455  18.377   6.639
 4400CHOL    R649499  12.658  18.324   6.221
 4400CHOL    C149500  12.965  18.383   6.046
 4400CHOL    C249501  13.195  18.458   5.675
 4401CHOL   ROH49502  32.089  17.778   4.145
 4401CHOL    R149503  32.159  17.564   4.513
 4401CHOL    R249504  32.153  17.908   4.462
 4401CHOL    R349505  32.180  17.629   4.935
 4401CHOL    R449506  32.113  17.949   4.767
 4401CHOL    R549507  31.914  17.827   4.478
 4401CHOL    R649508  31.964  17.802   4.943
 4401CHOL    C149509  32.167  17.922   5.212
 4401CHOL    C249510  32.220  17.816   5.654
 4402CHOL   ROH49511  26.607  23.194   7.198
 4402CHOL    R149512  26.351  23.168   6.852
 4402CHOL    R249513  26.693  23.229   6.862
 4402CHOL    R349514  26.370  23.134   6.426
 4402CHOL    R449515  26.712  23.150   6.562
 4402CHOL    R549516  26.658  22.981   6.887
 4402CHOL    R649517  26.580  22.953   6.427
 4402CHOL    C149518  26.633  23.129   6.121
 4402CHOL    C249519  26.600  23.111   5.693
 4403CHOL   ROH49520   4.587  30.458   7.374
 4403CHOL    R149521   4.402  30.756   7.123
 4403CHOL    R249522   4.692  30.575   7.063
 4403CHOL    R349523   4.416  30.909   6.724
 4403CHOL    R449524   4.669  30.644   6.762
 4403CHOL    R549525   4.496  30.427   7.007
 4403CHOL    R649526   4.446  30.661   6.605
 4403CHOL    C149527   4.622  30.874   6.379
 4403CHOL    C249528   4.393  30.943   6.019
 4404CHOL   ROH49529   4.789  21.113   7.013
 4404CHOL    R149530   4.728  21.348   6.656
 4404CHOL    R249531   4.916  21.058   6.693
 4404CHOL    R349532   4.784  21.329   6.233
 4404CHOL    R449533   4.907  21.018   6.386
 4404CHOL    R549534   4.674  20.992   6.672
 4404CHOL    R649535   4.703  21.065   6.211
 4404CHOL    C149536   4.939  21.094   5.945
 4404CHOL    C249537   4.843  21.161   5.550
 4405CHOL   ROH49538  31.690  10.551   6.921
 4405CHOL    R149539  31.860  10.571   6.525
 4405CHOL    R249540  31.681  10.816   6.695
 4405CHOL    R349541  31.953  10.854   6.218
 4405CHOL    R449542  31.794  11.029   6.500
 4405CHOL    R549543  31.918  10.821   6.780
 4405CHOL    R649544  32.044  11.048   6.392
 4405CHOL    C149545  31.912  11.244   6.123
 4405CHOL    C249546  32.099  11.324   5.742
 4406CHOL   ROH49547   1.414   8.696   4.178
 4406CHOL    R149548   1.507   8.433   4.508
 4406CHOL    R249549   1.514   8.781   4.501
 4406CHOL    R349550   1.570   8.441   4.930
 4406CHOL    R449551   1.505   8.783   4.811
 4406CHOL    R549552   1.274   8.709   4.531
 4406CHOL    R649553   1.366   8.620   4.981
 4406CHOL    C149554   1.598   8.696   5.242
 4406CHOL    C249555   1.715   8.728   5.671
 4407CHOL   ROH49556  16.388  26.990   7.202
 4407CHOL    R149557  16.196  26.797   6.868
 4407CHOL    R249558  16.412  27.070   6.863
 4407CHOL    R349559  16.211  26.779   6.440
 4407CHOL    R449560  16.463  27.019   6.561
 4407CHOL    R549561  16.551  26.860   6.884
 4407CHOL    R649562  16.487  26.783   6.427
 4407CHOL    C149563  16.395  26.946   6.123
 4407CHOL    C249564  16.381  26.835   5.698
 4408CHOL   ROH49565  18.523  34.764   4.047
 4408CHOL    R149566  18.497  34.503   4.389
 4408CHOL    R249567  18.727  34.757   4.329
 4408CHOL    R349568  18.649  34.461   4.787
 4408CHOL    R449569  18.796  34.761   4.631
 4408CHOL    R549570  18.515  34.863   4.413
 4408CHOL    R649571  18.631  34.731   4.846
 4408CHOL    C149572  18.910  34.628   5.045
 4408CHOL    C249573  19.070  34.526   5.424
 4409CHOL   ROH49574  15.049  13.756   6.819
 4409CHOL    R149575  15.137  13.920   6.431
 4409CHOL    R249576  15.125  13.586   6.525
 4409CHOL    R349577  15.176  13.803   6.021
 4409CHOL    R449578  15.099  13.507   6.226
 4409CHOL    R549579  14.889  13.664   6.487
 4409CHOL    R649580  14.959  13.630   6.026
 4409CHOL    C149581  15.173  13.477   5.784
 4409CHOL    C249582  15.207  13.516   5.329
 4410CHOL   ROH49583  14.619  32.472   7.133
 4410CHOL    R149584  14.542  32.458   6.708
 4410CHOL    R249585  14.846  32.417   6.874
 4410CHOL    R349586  14.728  32.340   6.342
 4410CHOL    R449587  14.961  32.282   6.620
 4410CHOL    R549588  14.719  32.199   6.888
 4410CHOL    R649589  14.841  32.110   6.446
 4410CHOL    C149590  15.077  32.202   6.194
 4410CHOL    C249591  15.121  31.993   5.800
 4411CHOL   ROH49592  34.367  17.148   7.749
 4411CHOL    R149593  34.620  17.018   7.426
 4411CHOL    R249594  34.273  17.007   7.445
 4411CHOL    R349595  34.600  16.900   7.015
 4411CHOL    R449596  34.261  16.976   7.136
 4411CHOL    R549597  34.340  17.242   7.382
 4411CHOL    R649598  34.416  17.094   6.945
 4411CHOL    C149599  34.336  16.828   6.719
 4411CHOL    C249600  34.366  16.590   6.358
 4412CHOL   ROH49601  30.677  29.936   4.070
 4412CHOL    R149602  30.904  29.647   4.297
 4412CHOL    R249603  30.624  29.828   4.397
 4412CHOL    R349604  30.881  29.416   4.656
 4412CHOL    R449605  30.579  29.624   4.626
 4412CHOL    R549606  30.545  29.633   4.258
 4412CHOL    R649607  30.613  29.353   4.626
 4412CHOL    C149608  30.650  29.358   4.981
 4412CHOL    C249609  30.760  29.035   5.295
 4413CHOL   ROH49610  11.494   9.577   6.564
 4413CHOL    R149611  11.742   9.676   6.224
 4413CHOL    R249612  11.441   9.502   6.227
 4413CHOL    R349613  11.731   9.685   5.797
 4413CHOL    R449614  11.410   9.558   5.924
 4413CHOL    R549615  11.388   9.748   6.241
 4413CHOL    R649616  11.472   9.783   5.783
 4413CHOL    C149617  11.496   9.587   5.484
 4413CHOL    C249618  11.574   9.831   5.143
 4414CHOL   ROH49619  26.646  10.575   7.324
 4414CHOL    R149620  26.747  10.307   7.001
 4414CHOL    R249621  26.633  10.636   6.981
 4414CHOL    R349622  26.821  10.308   6.580
 4414CHOL    R449623  26.739  10.650   6.690
 4414CHOL    R549624  26.880  10.641   7.032
 4414CHOL    R649625  26.966  10.543   6.583
 4414CHOL    C149626  26.817  10.552   6.259
 4414CHOL    C249627  26.833  10.542   5.823
 4415CHOL   ROH49628   1.788   4.767   6.959
 4415CHOL    R149629   1.688   4.441   6.695
 4415CHOL    R249630   1.710   4.780   6.620
 4415CHOL    R349631   1.643   4.352   6.279
 4415CHOL    R449632   1.733   4.707   6.319
 4415CHOL    R549633   1.944   4.685   6.623
 4415CHOL    R649634   1.864   4.499   6.201
 4415CHOL    C149635   1.650   4.527   5.916
 4415CHOL    C249636   1.423   4.458   5.568
 4416CHOL   ROH49637   4.271  31.497   4.092
 4416CHOL    R149638   4.584  31.303   4.317
 4416CHOL    R249639   4.290  31.445   4.437
 4416CHOL    R349640   4.663  31.143   4.705
 4416CHOL    R449641   4.323  31.284   4.699
 4416CHOL    R549642   4.234  31.217   4.346
 4416CHOL    R649643   4.413  31.028   4.734
 4416CHOL    C149644   4.500  31.107   5.072
 4416CHOL    C249645   4.667  31.052   5.486
 4417CHOL   ROH49646  31.436   2.977   7.043
 4417CHOL    R149647  31.516   3.259   6.726
 4417CHOL    R249648  31.444   2.920   6.699
 4417CHOL    R349649  31.487   3.298   6.301
 4417CHOL    R449650  31.371   2.963   6.401
 4417CHOL    R549651  31.227   3.042   6.733
 4417CHOL    R649652  31.241   3.172   6.283
 4417CHOL    C149653  31.391   3.088   5.970
 4417CHOL    C249654  31.327   3.289   5.583
 4418CHOL   ROH49655  27.587  12.504   7.227
 4418CHOL    R149656  27.318  12.392   6.909
 4418CHOL    R249657  27.605  12.588   6.889
 4418CHOL    R349658  27.290  12.391   6.482
 4418CHOL    R449659  27.612  12.539   6.583
 4418CHOL    R549660  27.675  12.346   6.893
 4418CHOL    R649661  27.553  12.312   6.443
 4418CHOL    C149662  27.488  12.510   6.152
 4418CHOL    C249663  27.466  12.431   5.723
 4419CHOL   ROH49664   2.239   7.618   7.200
 4419CHOL    R149665   2.130   7.770   6.811
 4419CHOL    R249666   2.433   7.630   6.910
 4419CHOL    R349667   2.263   7.769   6.405
 4419CHOL    R449668   2.503   7.581   6.612
 4419CHOL    R549669   2.271   7.442   6.865
 4419CHOL    R649670   2.341   7.504   6.407
 4419CHOL    C149671   2.570   7.648   6.173
 4419CHOL    C249672   2.603   7.543   5.756
 4420CHOL   ROH49673  23.796  27.808   6.939
 4420CHOL    R149674  23.615  27.677   6.570
 4420CHOL    R249675  23.777  27.978   6.635
 4420CHOL    R349676  23.599  27.777   6.154
 4420CHOL    R449677  23.812  28.020   6.330
 4420CHOL    R549678  23.953  27.802   6.593
 4420CHOL    R649679  23.868  27.838   6.135
 4420CHOL    C149680  23.724  28.055   5.890
 4420CHOL    C249681  23.576  28.103   5.503
 4421CHOL   ROH49682  27.502  29.162   6.540
 4421CHOL    R149683  27.277  29.112   6.175
 4421CHOL    R249684  27.546  29.325   6.234
 4421CHOL    R349685  27.292  29.210   5.759
 4421CHOL    R449686  27.588  29.350   5.928
 4421CHOL    R549687  27.637  29.094   6.191
 4421CHOL    R649688  27.563  29.159   5.734
 4421CHOL    C149689  27.511  29.416   5.490
 4421CHOL    C249690  27.551  29.546   5.070
 4422CHOL   ROH49691  29.466   2.657   3.661
 4422CHOL    R149692  29.636   2.516   4.032
 4422CHOL    R249693  29.349   2.708   3.986
 4422CHOL    R349694  29.539   2.473   4.446
 4422CHOL    R449695  29.256   2.630   4.271
 4422CHOL    R549696  29.290   2.468   3.940
 4422CHOL    R649697  29.279   2.391   4.401
 4422CHOL    C149698  29.251   2.560   4.715
 4422CHOL    C249699  29.242   2.567   5.164
 4423CHOL   ROH49700  30.227   2.392   7.326
 4423CHOL    R149701  30.418   2.558   6.977
 4423CHOL    R249702  30.194   2.293   6.993
 4423CHOL    R349703  30.394   2.550   6.550
 4423CHOL    R449704  30.138   2.326   6.690
 4423CHOL    R549705  30.062   2.507   7.004
 4423CHOL    R649706  30.118   2.555   6.542
 4423CHOL    C149707  30.198   2.370   6.247
 4423CHOL    C249708  30.139   2.656   5.932
 4424CHOL   ROH49709   7.677  29.961   6.469
 4424CHOL    R149710   7.896  29.639   6.284
 4424CHOL    R249711   7.597  29.783   6.180
 4424CHOL    R349712   7.914  29.416   5.919
 4424CHOL    R449713   7.642  29.664   5.897
 4424CHOL    R549714   7.786  29.934   6.106
 4424CHOL    R649715   7.874  29.637   5.756
 4424CHOL    C149716   7.726  29.373   5.565
 4424CHOL    C249717   7.855  29.032   5.325
 4425CHOL   ROH49718  17.322  34.425   3.456
 4425CHOL    R149719  17.303  34.621   3.840
 4425CHOL    R249720  17.459  34.320   3.759
 4425CHOL    R349721  17.482  34.607   4.229
 4425CHOL    R449722  17.628  34.343   4.018
 4425CHOL    R549723  17.611  34.509   3.688
 4425CHOL    R649724  17.738  34.564   4.134
 4425CHOL    C149725  17.744  34.394   4.449
 4425CHOL    C249726  17.797  34.433   4.895
 4426CHOL   ROH49727  16.508  14.255   6.606
 4426CHOL    R149728  16.273  14.251   6.244
 4426CHOL    R249729  16.570  14.422   6.306
 4426CHOL    R349730  16.297  14.362   5.832
 4426CHOL    R449731  16.611  14.453   6.001
 4426CHOL    R549732  16.628  14.183   6.253
 4426CHOL    R649733  16.559  14.276   5.800
 4426CHOL    C149734  16.539  14.547   5.567
 4426CHOL    C249735  16.527  14.520   5.132
 4427CHOL   ROH49736  34.985  25.236   7.459
 4427CHOL    R149737  34.721  25.170   7.125
 4427CHOL    R249738  35.069  25.156   7.130
 4427CHOL    R349739  34.723  25.014   6.726
 4427CHOL    R449740  35.063  24.994   6.866
 4427CHOL    R549741  34.981  24.938   7.223
 4427CHOL    R649742  34.888  24.800   6.786
 4427CHOL    C149743  34.972  24.867   6.445
 4427CHOL    C249744  34.982  24.871   6.022
 4428CHOL   ROH49745  23.736  14.139   4.089
 4428CHOL    R149746  23.563  13.936   4.427
 4428CHOL    R249747  23.882  13.898   4.295
 4428CHOL    R349748  23.673  13.690   4.760
 4428CHOL    R449749  23.973  13.768   4.561
 4428CHOL    R549750  23.881  14.105   4.439
 4428CHOL    R649751  23.904  13.832   4.817
 4428CHOL    C149752  23.991  13.501   4.922
 4428CHOL    C249753  24.026  13.417   5.337
 4429CHOL   ROH49754  32.303  19.074   5.531
 4429CHOL    R149755  32.290  19.404   5.254
 4429CHOL    R249756  32.244  19.411   5.599
 4429CHOL    R349757  32.290  19.832   5.248
 4429CHOL    R449758  32.300  19.716   5.597
 4429CHOL    R549759  32.492  19.402   5.553
 4429CHOL    R649760  32.480  19.858   5.448
 4429CHOL    C149761  32.282  20.153   5.492
 4429CHOL    C249762  32.473  20.493   5.296
 4430CHOL   ROH49763  33.879  25.121   4.064
 4430CHOL    R149764  34.148  24.829   4.233
 4430CHOL    R249765  33.965  25.074   4.399
 4430CHOL    R349766  34.261  24.661   4.610
 4430CHOL    R449767  34.003  24.919   4.664
 4430CHOL    R549768  33.811  24.881   4.350
 4430CHOL    R649769  34.003  24.649   4.708
 4430CHOL    C149770  34.194  24.698   5.006
 4430CHOL    C249771  34.393  24.522   5.360
 4431CHOL   ROH49772   1.349   2.384   6.843
 4431CHOL    R149773   1.510   2.206   6.485
 4431CHOL    R249774   1.232   2.105   6.669
 4431CHOL    R349775   1.407   1.923   6.180
 4431CHOL    R449776   1.133   1.944   6.424
 4431CHOL    R549777   1.163   2.299   6.523
 4431CHOL    R649778   1.144   2.007   6.159
 4431CHOL    C149779   1.120   1.660   6.076
 4431CHOL    C249780   1.062   1.333   5.792
 4432CHOL   ROH49781  17.019  17.270   3.978
 4432CHOL    R149782  16.992  16.941   4.256
 4432CHOL    R249783  17.268  17.140   4.185
 4432CHOL    R349784  17.206  16.760   4.579
 4432CHOL    R449785  17.398  17.047   4.450
 4432CHOL    R549786  17.120  17.267   4.345
 4432CHOL    R649787  17.282  17.000   4.693
 4432CHOL    C149788  17.554  16.785   4.781
 4432CHOL    C249789  17.548  16.668   5.219
 4433CHOL   ROH49790  28.479  16.023   6.827
 4433CHOL    R149791  28.373  15.975   6.412
 4433CHOL    R249792  28.691  15.987   6.553
 4433CHOL    R349793  28.546  15.865   6.036
 4433CHOL    R449794  28.806  15.855   6.297
 4433CHOL    R549795  28.599  15.754   6.587
 4433CHOL    R649796  28.698  15.659   6.140
 4433CHOL    C149797  28.898  15.769   5.865
 4433CHOL    C249798  29.035  15.693   5.454
 4434CHOL   ROH49799  16.982   2.135   6.851
 4434CHOL    R149800  16.802   1.840   6.594
 4434CHOL    R249801  16.959   2.137   6.503
 4434CHOL    R349802  16.782   1.727   6.182
 4434CHOL    R449803  16.992   2.028   6.215
 4434CHOL    R549804  17.138   1.965   6.549
 4434CHOL    R649805  17.050   1.774   6.132
 4434CHOL    C149806  16.901   1.845   5.815
 4434CHOL    C249807  16.720   1.775   5.427
 4435CHOL   ROH49808  15.726  22.794   7.512
 4435CHOL    R149809  15.369  22.923   7.307
 4435CHOL    R249810  15.698  23.020   7.247
 4435CHOL    R349811  15.245  23.130   6.954
 4435CHOL    R449812  15.613  23.121   6.967
 4435CHOL    R549813  15.661  22.795   7.137
 4435CHOL    R649814  15.435  23.012   6.790
 4435CHOL    C149815  15.393  23.333   6.638
 4435CHOL    C249816  15.258  23.557   6.261
 4436CHOL   ROH49817   0.629  31.993   7.107
 4436CHOL    R149818   0.705  32.304   6.818
 4436CHOL    R249819   0.845  31.986   6.833
 4436CHOL    R349820   0.888  32.365   6.436
 4436CHOL    R449821   0.929  32.013   6.536
 4436CHOL    R549822   0.616  31.966   6.728
 4436CHOL    R649823   0.795  32.128   6.328
 4436CHOL    C149824   1.105  32.174   6.155
 4436CHOL    C249825   1.203  32.227   5.719
 4437CHOL   ROH49826   2.888   2.368   4.419
 4437CHOL    R149827   3.311   2.382   4.498
 4437CHOL    R249828   3.051   2.354   4.727
 4437CHOL    R349829   3.593   2.312   4.812
 4437CHOL    R449830   3.253   2.249   4.938
 4437CHOL    R549831   3.093   2.126   4.628
 4437CHOL    R649832   3.467   2.083   4.905
 4437CHOL    C149833   3.614   2.215   5.203
 4437CHOL    C249834   4.036   2.139   5.214
 4438CHOL   ROH49835   0.807   6.733   7.139
 4438CHOL    R149836   0.906   7.072   6.892
 4438CHOL    R249837   0.807   6.754   6.791
 4438CHOL    R349838   0.875   7.208   6.488
 4438CHOL    R449839   0.734   6.869   6.513
 4438CHOL    R549840   0.600   6.882   6.858
 4438CHOL    R649841   0.620   7.108   6.449
 4438CHOL    C149842   0.760   7.087   6.121
 4438CHOL    C249843   0.940   7.228   5.772
 4439CHOL   ROH49844  16.552  10.792   7.135
 4439CHOL    R149845  16.196  10.676   6.921
 4439CHOL    R249846  16.490  10.810   6.792
 4439CHOL    R349847  16.057  10.603   6.523
 4439CHOL    R449848  16.410  10.706   6.512
 4439CHOL    R549849  16.527  10.564   6.833
 4439CHOL    R649850  16.287  10.472   6.442
 4439CHOL    C149851  16.175  10.623   6.138
 4439CHOL    C249852  15.803  10.640   5.915
 4440CHOL   ROH49853   8.062  21.145   3.370
 4440CHOL    R149854   7.807  21.087   3.713
 4440CHOL    R249855   8.150  21.147   3.707
 4440CHOL    R349856   7.808  21.132   4.138
 4440CHOL    R449857   8.136  21.232   4.005
 4440CHOL    R549858   8.031  21.368   3.677
 4440CHOL    R649859   7.942  21.374   4.135
 4440CHOL    C149860   8.049  21.232   4.446
 4440CHOL    C249861   8.075  21.398   4.837
 4441CHOL   ROH49862   5.379   8.157   6.854
 4441CHOL    R149863   5.289   8.428   6.530
 4441CHOL    R249864   5.142   8.121   6.600
 4441CHOL    R349865   4.994   8.499   6.228
 4441CHOL    R449866   4.901   8.200   6.422
 4441CHOL    R549867   5.039   8.293   6.752
 4441CHOL    R649868   4.779   8.442   6.393
 4441CHOL    C149869   4.657   8.342   6.072
 4441CHOL    C249870   4.366   8.681   5.971
 4442CHOL   ROH49871   9.791  21.552   3.413
 4442CHOL    R149872  10.068  21.323   3.652
 4442CHOL    R249873   9.822  21.544   3.760
 4442CHOL    R349874  10.137  21.203   4.057
 4442CHOL    R449875   9.837  21.416   4.042
 4442CHOL    R549876   9.711  21.324   3.706
 4442CHOL    R649877   9.871  21.154   4.112
 4442CHOL    C149878   9.996  21.256   4.431
 4442CHOL    C249879  10.192  21.040   4.753
 4443CHOL   ROH49880  12.594   6.670   3.895
 4443CHOL    R149881  12.436   6.805   4.273
 4443CHOL    R249882  12.599   6.506   4.202
 4443CHOL    R349883  12.449   6.712   4.690
 4443CHOL    R449884  12.654   6.469   4.505
 4443CHOL    R549885  12.774   6.685   4.229
 4443CHOL    R649886  12.720   6.656   4.693
 4443CHOL    C149887  12.596   6.441   4.950
 4443CHOL    C249888  12.413   6.466   5.333
 4444CHOL   ROH49889   3.035  16.063   7.232
 4444CHOL    R149890   3.038  16.129   6.806
 4444CHOL    R249891   3.088  15.830   6.977
 4444CHOL    R349892   3.028  15.914   6.436
 4444CHOL    R449893   3.026  15.675   6.716
 4444CHOL    R549894   2.839  15.874   6.967
 4444CHOL    R649895   2.841  15.729   6.522
 4444CHOL    C149896   3.034  15.539   6.288
 4444CHOL    C249897   3.356  15.530   5.974
 4445CHOL   ROH49898  16.564   7.137   6.985
 4445CHOL    R149899  16.769   6.811   6.791
 4445CHOL    R249900  16.537   7.031   6.654
 4445CHOL    R349901  16.847   6.653   6.402
 4445CHOL    R449902  16.636   6.953   6.371
 4445CHOL    R549903  16.761   7.147   6.661
 4445CHOL    R649904  16.890   6.900   6.285
 4445CHOL    C149905  16.757   6.710   6.013
 4445CHOL    C249906  16.689   6.378   5.717
 4446CHOL   ROH49907  29.235   3.750   4.124
 4446CHOL    R149908  29.388   4.036   4.408
 4446CHOL    R249909  29.133   3.804   4.453
 4446CHOL    R349910  29.375   4.129   4.826
 4446CHOL    R449911  29.164   3.834   4.760
 4446CHOL    R549912  29.353   3.684   4.479
 4446CHOL    R649913  29.391   3.865   4.908
 4446CHOL    C149914  29.198   4.014   5.170
 4446CHOL    C249915  29.212   4.255   5.552
 4447CHOL   ROH49916  27.417  35.027   6.737
 4447CHOL    R149917  27.468  34.932   6.320
 4447CHOL    R249918  27.230  35.140   6.465
 4447CHOL    R349919  27.341  35.060   5.932
 4447CHOL    R449920  27.179  35.269   6.188
 4447CHOL    R549921  27.445  35.270   6.446
 4447CHOL    R649922  27.357  35.330   5.991
 4447CHOL    C149923  27.092  35.321   5.751
 4447CHOL    C249924  27.389  35.557   5.549
 4448CHOL   ROH49925  30.196   6.010   6.537
 4448CHOL    R149926  30.451   5.862   6.222
 4448CHOL    R249927  30.108   5.915   6.213
 4448CHOL    R349928  30.449   5.785   5.801
 4448CHOL    R449929  30.119   5.913   5.904
 4448CHOL    R549930  30.222   6.137   6.180
 4448CHOL    R649931  30.309   6.015   5.737
 4448CHOL    C149932  30.205   5.789   5.480
 4448CHOL    C249933  30.400   5.692   5.096
 4449CHOL   ROH49934  36.009  25.962   7.142
 4449CHOL    R149935  36.099  26.169   6.774
 4449CHOL    R249936  36.090  25.826   6.831
 4449CHOL    R349937  36.144  26.097   6.355
 4449CHOL    R449938  36.067  25.780   6.526
 4449CHOL    R549939  35.853  25.907   6.800
 4449CHOL    R649940  35.928  25.923   6.339
 4449CHOL    C149941  36.145  25.798   6.084
 4449CHOL    C249942  36.309  25.911   5.689
 4450CHOL   ROH49943  26.701  12.001   6.889
 4450CHOL    R149944  26.911  11.803   6.569
 4450CHOL    R249945  26.743  12.108   6.560
 4450CHOL    R349946  27.064  11.877   6.176
 4450CHOL    R449947  26.898  12.181   6.302
 4450CHOL    R549948  26.970  12.146   6.664
 4450CHOL    R649949  27.159  12.130   6.236
 4450CHOL    C149950  27.076  12.161   5.890
 4450CHOL    C249951  27.153  12.064   5.447
 4451CHOL   ROH49952  10.787   1.476   6.459
 4451CHOL    R149953  10.697   1.227   6.119
 4451CHOL    R249954  10.662   1.572   6.148
 4451CHOL    R349955  10.608   1.254   5.701
 4451CHOL    R449956  10.653   1.593   5.838
 4451CHOL    R549957  10.905   1.521   6.100
 4451CHOL    R649958  10.794   1.453   5.651
 4451CHOL    C149959  10.542   1.524   5.409
 4451CHOL    C249960  10.455   1.497   5.010
 4452CHOL   ROH49961  30.754  29.646   6.888
 4452CHOL    R149962  30.559  29.439   6.565
 4452CHOL    R249963  30.795  29.693   6.545
 4452CHOL    R349964  30.587  29.382   6.142
 4452CHOL    R449965  30.852  29.613   6.251
 4452CHOL    R549966  30.917  29.477   6.590
 4452CHOL    R649967  30.863  29.364   6.139
 4452CHOL    C149968  30.794  29.506   5.819
 4452CHOL    C249969  30.694  29.534   5.403
 4453CHOL   ROH49970  16.137  21.835   4.083
 4453CHOL    R149971  16.139  21.976   4.491
 4453CHOL    R249972  15.985  21.691   4.363
 4453CHOL    R349973  16.045  21.847   4.887
 4453CHOL    R449974  15.968  21.576   4.650
 4453CHOL    R549975  16.230  21.640   4.396
 4453CHOL    R649976  16.149  21.593   4.854
 4453CHOL    C149977  15.887  21.537   5.090
 4453CHOL    C249978  15.770  21.439   5.494
 4454CHOL   ROH49979   8.059   2.250   3.628
 4454CHOL    R149980   7.846   2.255   4.003
 4454CHOL    R249981   8.170   2.144   3.941
 4454CHOL    R349982   7.913   2.211   4.424
 4454CHOL    R449983   8.232   2.166   4.244
 4454CHOL    R549984   8.176   2.395   3.959
 4454CHOL    R649985   8.150   2.354   4.424
 4454CHOL    C149986   8.202   2.121   4.690
 4454CHOL    C249987   8.233   2.063   5.108
 4455CHOL   ROH49988  19.798  34.860   7.018
 4455CHOL    R149989  19.884  34.560   6.719
 4455CHOL    R249990  19.710  34.859   6.680
 4455CHOL    R349991  19.877  34.502   6.295
 4455CHOL    R449992  19.755  34.841   6.374
 4455CHOL    R549993  19.957  34.911   6.676
 4455CHOL    R649994  19.975  34.754   6.236
 4455CHOL    C149995  19.768  34.685   5.953
 4455CHOL    C249996  19.830  34.559   5.526
 4456CHOL   ROH49997  22.333   2.145   6.827
 4456CHOL    R149998  22.522   2.248   6.453
 4456CHOL    R249999  22.279   2.006   6.511
 4456CHOL    R350000  22.480   2.187   6.032
 4456CHOL    R450001  22.213   2.005   6.209
 4456CHOL    R550002  22.164   2.231   6.498
 4456CHOL    R650003  22.204   2.213   6.032
 4456CHOL    C150004  22.258   1.985   5.762
 4456CHOL    C250005  22.294   1.976   5.329
 4457CHOL   ROH50006  10.189  33.393   5.361
 4457CHOL    R150007  10.339  33.114   5.653
 4457CHOL    R250008  10.503  33.387   5.513
 4457CHOL    R350009  10.663  33.063   5.928
 4457CHOL    R450010  10.706  33.381   5.747
 4457CHOL    R550011  10.351  33.472   5.695
 4457CHOL    R650012  10.664  33.327   6.011
 4457CHOL    C150013  11.007  33.236   6.047
 4457CHOL    C250014  11.331  33.054   6.277
 4458CHOL   ROH50015  33.311   6.293   3.754
 4458CHOL    R150016  33.470   6.300   4.155
 4458CHOL    R250017  33.137   6.278   4.056
 4458CHOL    R350018  33.354   6.226   4.559
 4458CHOL    R450019  33.065   6.171   4.338
 4458CHOL    R550020  33.240   6.048   4.036
 4458CHOL    R650021  33.205   6.001   4.499
 4458CHOL    C150022  33.033   6.132   4.784
 4458CHOL    C250023  32.842   6.229   5.160
 4459CHOL   ROH50024  15.076   2.463   7.074
 4459CHOL    R150025  15.336   2.588   6.753
 4459CHOL    R250026  15.053   2.386   6.735
 4459CHOL    R350027  15.354   2.599   6.326
 4459CHOL    R450028  15.038   2.441   6.431
 4459CHOL    R550029  14.977   2.626   6.745
 4459CHOL    R650030  15.090   2.672   6.294
 4459CHOL    C150031  15.152   2.482   5.998
 4459CHOL    C250032  15.255   2.446   5.581
 4460CHOL   ROH50033  23.114   2.203   6.906
 4460CHOL    R150034  23.311   2.219   6.523
 4460CHOL    R250035  23.000   2.084   6.599
 4460CHOL    R350036  23.232   2.165   6.106
 4460CHOL    R450037  22.925   2.097   6.298
 4460CHOL    R550038  22.973   2.334   6.579
 4460CHOL    R650039  22.985   2.289   6.114
 4460CHOL    C150040  22.941   2.049   5.852
 4460CHOL    C250041  22.977   2.034   5.407
 4461CHOL   ROH50042   0.177   2.301   3.648
 4461CHOL    R150043   0.257   2.599   3.949
 4461CHOL    R250044  -0.001   2.366   3.941
 4461CHOL    R350045   0.144   2.707   4.347
 4461CHOL    R450046  -0.043   2.408   4.245
 4461CHOL    R550047   0.207   2.249   4.023
 4461CHOL    R650048   0.142   2.447   4.441
 4461CHOL    C150049  -0.108   2.604   4.644
 4461CHOL    C250050  -0.240   2.723   5.032
 4462CHOL   ROH50051   5.250  13.807   7.291
 4462CHOL    R150052   5.263  13.670   6.882
 4462CHOL    R250053   4.985  13.706   7.087
 4462CHOL    R350054   5.006  13.592   6.549
 4462CHOL    R450055   4.804  13.703   6.836
 4462CHOL    R550056   5.045  13.934   6.997
 4462CHOL    R650057   4.847  13.815   6.590
 4462CHOL    C150058   4.616  13.583   6.445
 4462CHOL    C250059   4.437  13.287   6.208
 4463CHOL   ROH50060   3.993  25.247   4.298
 4463CHOL    R150061   3.945  24.992   4.642
 4463CHOL    R250062   4.219  25.189   4.557
 4463CHOL    R350063   4.124  24.909   5.022
 4463CHOL    R450064   4.318  25.171   4.850
 4463CHOL    R550065   4.045  25.338   4.663
 4463CHOL    R650066   4.173  25.174   5.082
 4463CHOL    C150067   4.441  25.008   5.250
 4463CHOL    C250068   4.804  24.971   5.490
 4464CHOL   ROH50069  25.152  10.200   7.286
 4464CHOL    R150070  25.197  10.004   6.905
 4464CHOL    R250071  25.060  10.317   6.971
 4464CHOL    R350072  25.177  10.085   6.486
 4464CHOL    R450073  25.099  10.392   6.673
 4464CHOL    R550074  25.312  10.340   6.971
 4464CHOL    R650075  25.304  10.330   6.504
 4464CHOL    C150076  25.087  10.378   6.224
 4464CHOL    C250077  25.016  10.407   5.800
 4465CHOL   ROH50078  27.791  24.679   6.430
 4465CHOL    R150079  27.861  24.874   6.051
 4465CHOL    R250080  28.033  24.605   6.190
 4465CHOL    R350081  28.074  24.819   5.684
 4465CHOL    R450082  28.144  24.536   5.909
 4465CHOL    R550083  27.820  24.517   6.087
 4465CHOL    R650084  28.019  24.549   5.666
 4465CHOL    C150085  28.338  24.572   5.505
 4465CHOL    C250086  28.524  24.630   5.113
 4466CHOL   ROH50087  26.665  32.104   3.588
 4466CHOL    R150088  26.595  32.383   3.909
 4466CHOL    R250089  26.562  32.036   3.914
 4466CHOL    R350090  26.534  32.393   4.332
 4466CHOL    R450091  26.573  32.044   4.224
 4466CHOL    R550092  26.806  32.092   3.940
 4466CHOL    R650093  26.724  32.201   4.388
 4466CHOL    C150094  26.488  32.151   4.652
 4466CHOL    C250095  26.332  32.340   5.006
 4467CHOL   ROH50096  25.185  32.489   3.849
 4467CHOL    R150097  25.403  32.860   3.883
 4467CHOL    R250098  25.313  32.639   4.136
 4467CHOL    R350099  25.640  33.080   4.162
 4467CHOL    R450100  25.527  32.768   4.319
 4467CHOL    R550101  25.518  32.547   4.022
 4467CHOL    R650102  25.777  32.859   4.256
 4467CHOL    C150103  25.771  33.072   4.543
 4467CHOL    C250104  25.929  33.329   4.861
 4468CHOL   ROH50105  11.376  17.856   6.741
 4468CHOL    R150106  11.391  18.087   6.377
 4468CHOL    R250107  11.451  17.747   6.419
 4468CHOL    R350108  11.408  18.037   5.953
 4468CHOL    R450109  11.408  17.707   6.114
 4468CHOL    R550110  11.201  17.782   6.412
 4468CHOL    R650111  11.229  17.827   5.947
 4468CHOL    C150112  11.441  17.753   5.669
 4468CHOL    C250113  11.162  17.761   5.311
 4469CHOL   ROH50114   8.507  30.207   6.660
 4469CHOL    R150115   8.468  30.327   6.247
 4469CHOL    R250116   8.455  30.006   6.380
 4469CHOL    R350117   8.346  30.173   5.867
 4469CHOL    R450118   8.316  29.908   6.121
 4469CHOL    R550119   8.231  30.114   6.416
 4469CHOL    R650120   8.129  30.035   5.967
 4469CHOL    C150121   8.224  29.834   5.687
 4469CHOL    C250122   8.076  29.912   5.290
 4470CHOL   ROH50123  16.925  23.022   4.104
 4470CHOL    R150124  16.772  22.848   4.469
 4470CHOL    R250125  17.081  23.000   4.416
 4470CHOL    R350126  16.854  22.833   4.888
 4470CHOL    R450127  17.111  23.037   4.722
 4470CHOL    R550128  16.909  23.182   4.448
 4470CHOL    R650129  16.922  23.100   4.908
 4470CHOL    C150130  17.125  22.951   5.163
 4470CHOL    C250131  17.046  22.993   5.605
 4471CHOL   ROH50132  35.684  25.362   4.420
 4471CHOL    R150133  35.564  25.576   4.775
 4471CHOL    R250134  35.399  25.315   4.615
 4471CHOL    R350135  35.286  25.552   5.099
 4471CHOL    R450136  35.236  25.265   4.874
 4471CHOL    R550137  35.583  25.216   4.756
 4471CHOL    R650138  35.316  25.279   5.134
 4471CHOL    C150139  34.977  25.332   5.235
 4471CHOL    C250140  34.643  25.368   5.506
 4472CHOL   ROH50141  31.134  13.908   7.194
 4472CHOL    R150142  31.079  14.125   6.825
 4472CHOL    R250143  31.355  13.940   6.927
 4472CHOL    R350144  31.252  14.167   6.436
 4472CHOL    R450145  31.450  13.926   6.632
 4472CHOL    R550146  31.181  13.779   6.840
 4472CHOL    R650147  31.302  13.897   6.404
 4472CHOL    C150148  31.566  14.046   6.215
 4472CHOL    C250149  31.522  14.022   5.786
 4473CHOL   ROH50150   3.081   2.346   7.127
 4473CHOL    R150151   2.859   2.131   6.827
 4473CHOL    R250152   3.019   2.438   6.797
 4473CHOL    R350153   2.786   2.128   6.406
 4473CHOL    R450154   3.013   2.406   6.489
 4473CHOL    R550155   3.193   2.257   6.775
 4473CHOL    R650156   3.049   2.182   6.337
 4473CHOL    C150157   2.868   2.335   6.069
 4473CHOL    C250158   2.629   2.269   5.730
 4474CHOL   ROH50159   1.985  28.088   6.238
 4474CHOL    R150160   2.038  28.320   5.878
 4474CHOL    R250161   1.942  27.986   5.907
 4474CHOL    R350162   1.953  28.306   5.459
 4474CHOL    R450163   1.831  27.997   5.618
 4474CHOL    R550164   1.739  28.130   5.951
 4474CHOL    R650165   1.699  28.199   5.491
 4474CHOL    C150166   1.799  28.064   5.175
 4474CHOL    C250167   1.731  28.132   4.760
 4475CHOL   ROH50168   6.021   2.971   7.043
 4475CHOL    R150169   6.029   2.627   6.783
 4475CHOL    R250170   6.042   2.963   6.695
 4475CHOL    R350171   6.112   2.519   6.378
 4475CHOL    R450172   6.155   2.883   6.418
 4475CHOL    R550173   6.273   2.893   6.769
 4475CHOL    R650174   6.333   2.685   6.355
 4475CHOL    C150175   6.207   2.680   6.020
 4475CHOL    C250176   6.055   2.411   5.711
 4476CHOL   ROH50177  23.906  27.523   3.648
 4476CHOL    R150178  23.634  27.603   3.974
 4476CHOL    R250179  23.970  27.513   3.991
 4476CHOL    R350180  23.633  27.675   4.395
 4476CHOL    R450181  23.979  27.618   4.282
 4476CHOL    R550182  23.958  27.760   3.941
 4476CHOL    R650183  23.857  27.837   4.391
 4476CHOL    C150184  23.879  27.687   4.715
 4476CHOL    C250185  23.851  27.698   5.150
 4477CHOL   ROH50186  29.215  13.653   3.871
 4477CHOL    R150187  28.816  13.544   3.994
 4477CHOL    R250188  29.118  13.460   4.146
 4477CHOL    R350189  28.604  13.379   4.327
 4477CHOL    R450190  28.963  13.393   4.406
 4477CHOL    R550191  29.058  13.695   4.215
 4477CHOL    R650192  28.748  13.519   4.517
 4477CHOL    C150193  28.664  13.218   4.692
 4477CHOL    C250194  28.433  12.964   4.989
 4478CHOL   ROH50195  12.711   0.889   3.659
 4478CHOL    R150196  12.480   0.812   4.015
 4478CHOL    R250197  12.795   0.957   3.991
 4478CHOL    R350198  12.468   0.912   4.431
 4478CHOL    R450199  12.759   1.074   4.276
 4478CHOL    R550200  12.624   1.134   3.936
 4478CHOL    R650201  12.536   1.177   4.393
 4478CHOL    C150202  12.675   1.109   4.716
 4478CHOL    C250203  12.523   1.073   5.105
 4479CHOL   ROH50204  10.951  32.155   7.021
 4479CHOL    R150205  10.942  32.296   6.613
 4479CHOL    R250206  11.152  32.056   6.753
 4479CHOL    R350207  11.092  32.199   6.225
 4479CHOL    R450208  11.216  31.952   6.469
 4479CHOL    R550209  10.930  31.947   6.703
 4479CHOL    R650210  11.052  31.926   6.252
 4479CHOL    C150211  11.336  31.939   6.036
 4479CHOL    C250212  11.542  32.013   5.687
 4480CHOL   ROH50213  11.030  23.594   6.390
 4480CHOL    R150214  11.330  23.505   6.093
 4480CHOL    R250215  11.004  23.386   6.111
 4480CHOL    R350216  11.373  23.327   5.707
 4480CHOL    R450217  11.020  23.307   5.812
 4480CHOL    R550218  10.997  23.618   6.012
 4480CHOL    R650219  11.141  23.439   5.605
 4480CHOL    C150220  11.163  23.131   5.424
 4480CHOL    C250221  11.339  22.990   5.074
 4481CHOL   ROH50222  20.723  32.496   6.674
 4481CHOL    R150223  20.505  32.613   6.321
 4481CHOL    R250224  20.643  32.302   6.396
 4481CHOL    R350225  20.313  32.443   5.978
 4481CHOL    R450226  20.461  32.174   6.181
 4481CHOL    R550227  20.424  32.321   6.518
 4481CHOL    R650228  20.202  32.232   6.117
 4481CHOL    C150229  20.251  32.091   5.792
 4481CHOL    C250230  20.074  31.851   5.478
 4482CHOL   ROH50231  35.902  18.658   5.384
 4482CHOL    R150232  36.262  18.436   5.468
 4482CHOL    R250233  35.995  18.500   5.681
 4482CHOL    R350234  36.428  18.168   5.758
 4482CHOL    R450235  36.088  18.266   5.862
 4482CHOL    R550236  35.930  18.308   5.530
 4482CHOL    R650237  36.194  18.024   5.792
 4482CHOL    C150238  36.346  17.999   6.115
 4482CHOL    C250239  36.725  17.837   6.324
 4483CHOL   ROH50240   7.218  14.429   3.899
 4483CHOL    R150241   7.610  14.480   4.070
 4483CHOL    R250242   7.301  14.504   4.229
 4483CHOL    R350243   7.806  14.507   4.450
 4483CHOL    R450244   7.443  14.468   4.502
 4483CHOL    R550245   7.360  14.259   4.208
 4483CHOL    R650246   7.654  14.308   4.568
 4483CHOL    C150247   7.728  14.520   4.845
 4483CHOL    C250248   7.939  14.566   5.210
 4484CHOL   ROH50249   8.985  18.615   3.787
 4484CHOL    R150250   8.796  18.570   4.173
 4484CHOL    R250251   9.026  18.811   4.072
 4484CHOL    R350252   8.736  18.781   4.539
 4484CHOL    R450253   8.939  18.988   4.312
 4484CHOL    R550254   8.798  18.879   3.987
 4484CHOL    R650255   8.690  19.025   4.417
 4484CHOL    C150256   8.837  19.123   4.728
 4484CHOL    C250257   8.691  19.364   5.078
 4485CHOL   ROH50258  22.510  15.960   4.056
 4485CHOL    R150259  22.278  16.099   4.393
 4485CHOL    R250260  22.451  15.799   4.360
 4485CHOL    R350261  22.206  16.011   4.805
 4485CHOL    R450262  22.444  15.766   4.668
 4485CHOL    R550263  22.618  15.979   4.420
 4485CHOL    R650264  22.471  15.955   4.863
 4485CHOL    C150265  22.296  15.743   5.092
 4485CHOL    C250266  22.099  15.770   5.480
 4486CHOL   ROH50267  18.065  20.484   3.882
 4486CHOL    R150268  17.916  20.620   4.263
 4486CHOL    R250269  18.080  20.322   4.191
 4486CHOL    R350270  17.940  20.530   4.681
 4486CHOL    R450271  18.143  20.288   4.492
 4486CHOL    R550272  18.253  20.503   4.212
 4486CHOL    R650273  18.212  20.477   4.677
 4486CHOL    C150274  18.097  20.262   4.938
 4486CHOL    C250275  18.167  20.226   5.367
 4487CHOL   ROH50276   8.112   2.896   6.736
 4487CHOL    R150277   7.820   3.054   6.461
 4487CHOL    R250278   8.161   3.008   6.409
 4487CHOL    R350279   7.771   3.150   6.047
 4487CHOL    R450280   8.112   3.023   6.103
 4487CHOL    R550281   8.046   2.785   6.378
 4487CHOL    R650282   7.905   2.925   5.955
 4487CHOL    C150283   7.975   3.164   5.699
 4487CHOL    C250284   7.822   3.246   5.293
 4488CHOL   ROH50285  25.763  13.584   6.935
 4488CHOL    R150286  25.512  13.708   6.607
 4488CHOL    R250287  25.841  13.594   6.595
 4488CHOL    R350288  25.494  13.696   6.180
 4488CHOL    R450289  25.805  13.535   6.293
 4488CHOL    R550290  25.689  13.393   6.615
 4488CHOL    R650291  25.588  13.436   6.161
 4488CHOL    C150292  25.707  13.582   5.857
 4488CHOL    C250293  25.760  13.805   5.496
 4489CHOL   ROH50294  28.833  26.380   7.175
 4489CHOL    R150295  28.676  26.648   6.876
 4489CHOL    R250296  28.968  26.461   6.864
 4489CHOL    R350297  28.729  26.757   6.466
 4489CHOL    R450298  28.973  26.496   6.556
 4489CHOL    R550299  28.776  26.308   6.806
 4489CHOL    R650300  28.766  26.497   6.378
 4489CHOL    C150301  28.965  26.684   6.147
 4489CHOL    C250302  29.122  26.788   5.755
 4490CHOL   ROH50303  30.563  20.354   6.733
 4490CHOL    R150304  30.809  20.326   6.380
 4490CHOL    R250305  30.488  20.201   6.429
 4490CHOL    R350306  30.784  20.223   5.965
 4490CHOL    R450307  30.454  20.180   6.121
 4490CHOL    R550308  30.469  20.447   6.377
 4490CHOL    R650309  30.541  20.349   5.925
 4490CHOL    C150310  30.527  20.080   5.689
 4490CHOL    C250311  30.755  19.770   5.519
 4491CHOL   ROH50312   3.643  30.542   4.099
 4491CHOL    R150313   3.844  30.442   4.467
 4491CHOL    R250314   3.598  30.682   4.415
 4491CHOL    R350315   3.815  30.507   4.889
 4491CHOL    R450316   3.542  30.686   4.720
 4491CHOL    R550317   3.484  30.458   4.434
 4491CHOL    R650318   3.540  30.479   4.898
 4491CHOL    C150319   3.601  30.709   5.164
 4491CHOL    C250320   3.664  30.652   5.601
 4492CHOL   ROH50321  28.468  22.148   3.681
 4492CHOL    R150322  28.717  22.261   4.014
 4492CHOL    R250323  28.377  22.186   4.015
 4492CHOL    R350324  28.714  22.271   4.442
 4492CHOL    R450325  28.392  22.140   4.321
 4492CHOL    R550326  28.505  21.968   4.013
 4492CHOL    R650327  28.590  22.025   4.470
 4492CHOL    C150328  28.475  22.201   4.759
 4492CHOL    C250329  28.627  22.434   5.116
 4493CHOL   ROH50330  21.518   3.858   6.791
 4493CHOL    R150331  21.616   3.765   6.381
 4493CHOL    R250332  21.470   4.054   6.507
 4493CHOL    R350333  21.654   3.952   5.998
 4493CHOL    R450334  21.549   4.203   6.246
 4493CHOL    R550335  21.719   4.069   6.547
 4493CHOL    R650336  21.776   4.180   6.097
 4493CHOL    C150337  21.599   4.305   5.812
 4493CHOL    C250338  21.884   4.458   5.500
 4494CHOL   ROH50339   3.336  34.746   4.318
 4494CHOL    R150340   3.310  34.987   4.675
 4494CHOL    R250341   3.106  34.722   4.579
 4494CHOL    R350342   3.119  34.994   5.057
 4494CHOL    R450343   3.010  34.695   4.872
 4494CHOL    R550344   3.317  34.626   4.678
 4494CHOL    R650345   3.152  34.724   5.104
 4494CHOL    C150346   2.848  34.795   5.280
 4494CHOL    C250347   2.676  35.168   5.369
 4495CHOL   ROH50348  33.518  18.977   4.357
 4495CHOL    R150349  33.187  19.112   4.598
 4495CHOL    R250350  33.510  19.032   4.701
 4495CHOL    R350351  33.101  19.263   4.989
 4495CHOL    R450352  33.461  19.191   4.963
 4495CHOL    R550353  33.514  19.265   4.604
 4495CHOL    R650354  33.325  19.425   5.001
 4495CHOL    C150355  33.276  19.339   5.345
 4495CHOL    C250356  33.142  19.461   5.733
 4496CHOL   ROH50357  18.572  30.862   4.966
 4496CHOL    R150358  18.869  30.592   5.122
 4496CHOL    R250359  18.916  30.912   4.996
 4496CHOL    R350360  19.277  30.585   5.252
 4496CHOL    R450361  19.191  30.924   5.138
 4496CHOL    R550362  18.833  30.933   5.233
 4496CHOL    R650363  19.263  30.828   5.383
 4496CHOL    C150364  19.604  30.819   5.278
 4496CHOL    C250365  20.054  30.808   5.359
 4497CHOL   ROH50366  26.562  34.771   3.769
 4497CHOL    R150367  26.781  34.858   4.130
 4497CHOL    R250368  26.452  34.748   4.099
 4497CHOL    R350369  26.758  34.802   4.553
 4497CHOL    R450370  26.459  34.658   4.395
 4497CHOL    R550371  26.604  34.548   4.073
 4497CHOL    R650372  26.662  34.543   4.537
 4497CHOL    C150373  26.514  34.660   4.841
 4497CHOL    C250374  26.484  34.934   5.182
 4498CHOL   ROH50375  17.429  26.695   4.132
 4498CHOL    R150376  17.782  26.643   4.375
 4498CHOL    R250377  17.499  26.833   4.445
 4498CHOL    R350378  17.925  26.712   4.772
 4498CHOL    R450379  17.579  26.834   4.744
 4498CHOL    R550380  17.446  26.592   4.498
 4498CHOL    R650381  17.690  26.635   4.895
 4498CHOL    C150382  17.817  26.879   5.122
 4498CHOL    C250383  17.991  27.134   5.425
 4499CHOL   ROH50384  27.540   1.015   7.291
 4499CHOL    R150385  27.406   1.323   7.021
 4499CHOL    R250386  27.611   1.051   6.951
 4499CHOL    R350387  27.385   1.413   6.603
 4499CHOL    R450388  27.549   1.086   6.650
 4499CHOL    R550389  27.372   0.970   6.953
 4499CHOL    R650390  27.315   1.156   6.528
 4499CHOL    C150391  27.498   1.270   6.243
 4499CHOL    C250392  27.546   1.446   5.849
 4500CHOL   ROH50393  26.461   1.479   3.703
 4500CHOL    R150394  26.227   1.380   4.051
 4500CHOL    R250395  26.563   1.467   4.036
 4500CHOL    R350396  26.242   1.398   4.478
 4500CHOL    R450397  26.556   1.532   4.339
 4500CHOL    R550398  26.427   1.679   4.025
 4500CHOL    R650399  26.358   1.650   4.486
 4500CHOL    C150400  26.489   1.497   4.782
 4500CHOL    C250401  26.412   1.481   5.211
 4501CHOL   ROH50402  21.089  32.729   3.993
 4501CHOL    R150403  21.249  32.393   4.211
 4501CHOL    R250404  21.276  32.731   4.287
 4501CHOL    R350405  21.422  32.295   4.589
 4501CHOL    R450406  21.349  32.656   4.578
 4501CHOL    R550407  21.048  32.652   4.363
 4501CHOL    R650408  21.250  32.455   4.735
 4501CHOL    C150409  21.548  32.464   4.933
 4501CHOL    C250410  21.511  32.255   5.304
 4502CHOL   ROH50411  17.206  34.244   6.765
 4502CHOL    R150412  17.106  34.475   6.414
 4502CHOL    R250413  17.326  34.206   6.440
 4502CHOL    R350414  17.147  34.466   5.988
 4502CHOL    R450415  17.310  34.169   6.132
 4502CHOL    R550416  17.092  34.114   6.426
 4502CHOL    R650417  17.095  34.195   5.966
 4502CHOL    C150418  17.317  34.252   5.691
 4502CHOL    C250419  17.317  34.331   5.249
 4503CHOL   ROH50420   4.532  18.557   6.997
 4503CHOL    R150421   4.823  18.359   6.747
 4503CHOL    R250422   4.535  18.527   6.649
 4503CHOL    R350423   4.942  18.327   6.338
 4503CHOL    R450424   4.651  18.550   6.362
 4503CHOL    R550425   4.714  18.699   6.695
 4503CHOL    R650426   4.908  18.596   6.282
 4503CHOL    C150427   4.836  18.443   5.967
 4503CHOL    C250428   4.785  18.291   5.550
 4504CHOL   ROH50429  23.544  22.068   7.099
 4504CHOL    R150430  23.718  22.232   6.740
 4504CHOL    R250431  23.578  21.917   6.786
 4504CHOL    R350432  23.745  22.156   6.320
 4504CHOL    R450433  23.549  21.888   6.479
 4504CHOL    R550434  23.390  22.081   6.752
 4504CHOL    R650435  23.481  22.077   6.293
 4504CHOL    C150436  23.644  21.884   6.040
 4504CHOL    C250437  23.784  21.907   5.610
 4505CHOL   ROH50438  24.873  22.961   7.056
 4505CHOL    R150439  24.948  22.683   6.735
 4505CHOL    R250440  24.827  23.008   6.713
 4505CHOL    R350441  24.984  22.669   6.309
 4505CHOL    R450442  24.905  23.013   6.413
 4505CHOL    R550443  25.077  23.020   6.741
 4505CHOL    R650444  25.124  22.906   6.290
 4505CHOL    C150445  24.945  22.899   5.980
 4505CHOL    C250446  24.977  22.829   5.546
 4506CHOL   ROH50447  30.524  28.173   4.192
 4506CHOL    R150448  30.632  28.099   4.602
 4506CHOL    R250449  30.456  28.369   4.472
 4506CHOL    R350450  30.546  28.235   4.999
 4506CHOL    R450451  30.351  28.433   4.757
 4506CHOL    R550452  30.296  28.176   4.496
 4506CHOL    R650453  30.274  28.261   4.955
 4506CHOL    C150454  30.336  28.516   5.198
 4506CHOL    C250455  30.429  28.625   5.614
 4507CHOL   ROH50456  17.663  33.573   7.165
 4507CHOL    R150457  17.343  33.401   6.933
 4507CHOL    R250458  17.616  33.584   6.820
 4507CHOL    R350459  17.238  33.310   6.528
 4507CHOL    R450460  17.569  33.471   6.535
 4507CHOL    R550461  17.692  33.347   6.862
 4507CHOL    R650462  17.491  33.221   6.459
 4507CHOL    C150463  17.370  33.354   6.150
 4507CHOL    C250464  17.190  33.214   5.783
 4508CHOL   ROH50465  30.651   6.197   3.788
 4508CHOL    R150466  30.378   6.377   4.070
 4508CHOL    R250467  30.529   6.064   4.086
 4508CHOL    R350468  30.230   6.324   4.468
 4508CHOL    R450469  30.467   6.054   4.390
 4508CHOL    R550470  30.697   6.235   4.163
 4508CHOL    R650471  30.476   6.254   4.575
 4508CHOL    C150472  30.248   6.072   4.781
 4508CHOL    C250473  29.891   6.056   5.019
 4509CHOL   ROH50474  24.776  14.251   7.386
 4509CHOL    R150475  25.049  14.320   7.060
 4509CHOL    R250476  24.730  14.181   7.047
 4509CHOL    R350477  25.061  14.328   6.632
 4509CHOL    R450478  24.721  14.240   6.743
 4509CHOL    R550479  24.706  14.432   7.059
 4509CHOL    R650480  24.817  14.456   6.605
 4509CHOL    C150481  24.832  14.258   6.308
 4509CHOL    C250482  25.022  14.242   5.915
 4510CHOL   ROH50483  31.227  24.332   7.258
 4510CHOL    R150484  31.178  24.532   6.879
 4510CHOL    R250485  31.298  24.211   6.939
 4510CHOL    R350486  31.174  24.451   6.459
 4510CHOL    R450487  31.242  24.139   6.642
 4510CHOL    R550488  31.046  24.203   6.950
 4510CHOL    R650489  31.034  24.214   6.483
 4510CHOL    C150490  31.235  24.154   6.193
 4510CHOL    C250491  31.263  24.189   5.762
 4511CHOL   ROH50492  24.203  15.682   7.024
 4511CHOL    R150493  24.508  15.555   6.747
 4511CHOL    R250494  24.167  15.589   6.689
 4511CHOL    R350495  24.571  15.487   6.329
 4511CHOL    R450496  24.223  15.594   6.385
 4511CHOL    R550497  24.272  15.818   6.676
 4511CHOL    R650498  24.429  15.710   6.249
 4511CHOL    C150499  24.375  15.485   5.977
 4511CHOL    C250500  24.557  15.516   5.581
 4512CHOL   ROH50501  34.150   3.342   6.544
 4512CHOL    R150502  33.951   3.550   6.224
 4512CHOL    R250503  34.258   3.387   6.216
 4512CHOL    R350504  33.968   3.600   5.799
 4512CHOL    R450505  34.240   3.377   5.906
 4512CHOL    R550506  34.077   3.212   6.195
 4512CHOL    R650507  34.023   3.334   5.747
 4512CHOL    C150508  34.189   3.500   5.477
 4512CHOL    C250509  34.186   3.531   5.028
 4513CHOL   ROH50510   9.063  13.606   7.112
 4513CHOL    R150511   9.287  13.778   6.786
 4513CHOL    R250512   9.205  13.444   6.838
 4513CHOL    R350513   9.436  13.680   6.397
 4513CHOL    R450514   9.262  13.388   6.538
 4513CHOL    R550515   9.003  13.560   6.740
 4513CHOL    R650516   9.209  13.543   6.320
 4513CHOL    C150517   9.466  13.373   6.138
 4513CHOL    C250518   9.513  13.390   5.682
 4514CHOL   ROH50519  12.890  26.029   6.746
 4514CHOL    R150520  13.116  26.128   6.392
 4514CHOL    R250521  12.833  25.928   6.418
 4514CHOL    R350522  13.090  26.108   5.966
 4514CHOL    R450523  12.786  25.961   6.113
 4514CHOL    R550524  12.758  26.169   6.418
 4514CHOL    R650525  12.823  26.181   5.956
 4514CHOL    C150526  12.855  25.970   5.669
 4514CHOL    C250527  13.002  25.979   5.247
 4515CHOL   ROH50528  16.490  25.760   6.991
 4515CHOL    R150529  16.306  25.986   6.673
 4515CHOL    R250530  16.463  25.676   6.654
 4515CHOL    R350531  16.172  25.942   6.269
 4515CHOL    R450532  16.319  25.624   6.384
 4515CHOL    R550533  16.229  25.640   6.742
 4515CHOL    R650534  16.065  25.689   6.307
 4515CHOL    C150535  16.166  25.677   5.965
 4515CHOL    C250536  15.881  25.706   5.644
 4516CHOL   ROH50537  10.555  13.641   7.170
 4516CHOL    R150538  10.912  13.635   6.928
 4516CHOL    R250539  10.591  13.533   6.840
 4516CHOL    R350540  11.037  13.586   6.522
 4516CHOL    R450541  10.671  13.552   6.541
 4516CHOL    R550542  10.601  13.784   6.821
 4516CHOL    R650543  10.829  13.735   6.416
 4516CHOL    C150544  10.894  13.499   6.155
 4516CHOL    C250545  11.075  13.432   5.750
 4517CHOL   ROH50546  20.117  20.410   7.390
 4517CHOL    R150547  20.159  20.107   7.085
 4517CHOL    R250548  19.980  20.406   7.069
 4517CHOL    R350549  20.089  20.045   6.667
 4517CHOL    R450550  19.980  20.384   6.760
 4517CHOL    R550551  20.224  20.458   7.028
 4517CHOL    R650552  20.176  20.297   6.592
 4517CHOL    C150553  19.931  20.224   6.343
 4517CHOL    C250554  19.946  20.095   5.944
 4518CHOL   ROH50555  29.666  27.712   3.804
 4518CHOL    R150556  29.520  27.479   4.137
 4518CHOL    R250557  29.735  27.753   4.144
 4518CHOL    R350558  29.496  27.490   4.564
 4518CHOL    R450559  29.672  27.791   4.445
 4518CHOL    R550560  29.499  27.840   4.121
 4518CHOL    R650561  29.435  27.760   4.577
 4518CHOL    C150562  29.613  27.708   4.882
 4518CHOL    C250563  29.579  27.553   5.303
 4519CHOL   ROH50564   3.911  24.337   4.647
 4519CHOL    R150565   3.794  24.698   4.852
 4519CHOL    R250566   3.865  24.386   4.989
 4519CHOL    R350567   3.775  24.864   5.245
 4519CHOL    R450568   3.904  24.520   5.265
 4519CHOL    R550569   4.084  24.502   4.942
 4519CHOL    R650570   4.019  24.761   5.326
 4519CHOL    C150571   3.835  24.769   5.633
 4519CHOL    C250572   3.576  24.846   5.992
 4520CHOL   ROH50573  16.584  30.762   3.575
 4520CHOL    R150574  16.693  30.895   3.970
 4520CHOL    R250575  16.387  30.930   3.809
 4520CHOL    R350576  16.518  31.041   4.332
 4520CHOL    R450577  16.253  30.982   4.083
 4520CHOL    R550578  16.400  30.695   3.901
 4520CHOL    R650579  16.303  30.866   4.325
 4520CHOL    C150580  16.163  31.151   4.489
 4520CHOL    C250581  16.073  31.153   4.930
 4521CHOL   ROH50582  32.702  17.945   7.131
 4521CHOL    R150583  32.547  18.102   6.760
 4521CHOL    R250584  32.777  17.844   6.806
 4521CHOL    R350585  32.528  18.009   6.343
 4521CHOL    R450586  32.719  17.747   6.517
 4521CHOL    R550587  32.545  17.750   6.845
 4521CHOL    R650588  32.482  17.739   6.382
 4521CHOL    C150589  32.660  17.742   6.072
 4521CHOL    C250590  32.789  17.752   5.631
 4522CHOL   ROH50591   6.458  25.484   3.873
 4522CHOL    R150592   6.399  25.334   4.273
 4522CHOL    R250593   6.439  25.664   4.171
 4522CHOL    R350594   6.303  25.469   4.668
 4522CHOL    R450595   6.317  25.758   4.440
 4522CHOL    R550596   6.200  25.598   4.128
 4522CHOL    R650597   6.111  25.650   4.584
 4522CHOL    C150598   6.238  25.806   4.880
 4522CHOL    C250599   6.251  25.804   5.314
 4523CHOL   ROH50600  15.551   9.739   4.153
 4523CHOL    R150601  15.296   9.703   4.499
 4523CHOL    R250602  15.606   9.861   4.475
 4523CHOL    R350603  15.247   9.861   4.893
 4523CHOL    R450604  15.542  10.016   4.735
 4523CHOL    R550605  15.431  10.017   4.382
 4523CHOL    R650606  15.305  10.122   4.820
 4523CHOL    C150607  15.422  10.110   5.158
 4523CHOL    C250608  15.163  10.277   5.437
 4524CHOL   ROH50609   4.984  29.097   6.896
 4524CHOL    R150610   4.803  29.330   6.582
 4524CHOL    R250611   4.955  29.018   6.558
 4524CHOL    R350612   4.668  29.294   6.178
 4524CHOL    R450613   4.810  28.973   6.288
 4524CHOL    R550614   4.721  28.984   6.647
 4524CHOL    R650615   4.557  29.043   6.213
 4524CHOL    C150616   4.657  29.034   5.870
 4524CHOL    C250617   4.693  29.215   5.454
 4525CHOL   ROH50618  33.177  15.257   3.856
 4525CHOL    R150619  33.175  15.026   4.220
 4525CHOL    R250620  33.258  15.362   4.178
 4525CHOL    R350621  33.194  15.076   4.644
 4525CHOL    R450622  33.217  15.406   4.482
 4525CHOL    R550623  33.006  15.343   4.184
 4525CHOL    R650624  33.029  15.298   4.649
 4525CHOL    C150625  33.244  15.359   4.928
 4525CHOL    C250626  33.251  15.296   5.347
 4526CHOL   ROH50627   9.064  34.347   4.082
 4526CHOL    R150628   9.157  33.950   4.223
 4526CHOL    R250629   9.184  34.251   4.395
 4526CHOL    R350630   9.241  33.737   4.585
 4526CHOL    R450631   9.190  34.093   4.662
 4526CHOL    R550632   8.942  34.180   4.401
 4526CHOL    R650633   9.050  33.870   4.735
 4526CHOL    C150634   9.299  33.795   4.979
 4526CHOL    C250635   9.398  33.504   5.284
 4527CHOL   ROH50636  21.852  34.922   3.625
 4527CHOL    R150637  21.914  35.312   3.797
 4527CHOL    R250638  21.909  35.004   3.959
 4527CHOL    R350639  22.047  35.498   4.159
 4527CHOL    R450640  22.056  35.132   4.200
 4527CHOL    R550641  22.136  35.033   3.852
 4527CHOL    R650642  22.254  35.320   4.202
 4527CHOL    C150643  22.164  35.411   4.535
 4527CHOL    C250644  22.252  35.708   4.831
 4528CHOL   ROH50645  35.331  22.350   7.801
 4528CHOL    R150646  35.010  22.492   7.550
 4528CHOL    R250647  35.328  22.388   7.454
 4528CHOL    R350648  34.894  22.513   7.139
 4528CHOL    R450649  35.224  22.352   7.164
 4528CHOL    R550650  35.186  22.183   7.492
 4528CHOL    R650651  34.983  22.258   7.077
 4528CHOL    C150652  35.029  22.430   6.768
 4528CHOL    C250653  34.797  22.508   6.407
 4529CHOL   ROH50654  27.376  16.674   3.789
 4529CHOL    R150655  27.385  16.419   4.136
 4529CHOL    R250656  27.366  16.766   4.125
 4529CHOL    R350657  27.317  16.430   4.558
 4529CHOL    R450658  27.264  16.766   4.417
 4529CHOL    R550659  27.135  16.674   4.083
 4529CHOL    R650660  27.094  16.592   4.541
 4529CHOL    C150661  27.230  16.685   4.858
 4529CHOL    C250662  27.264  16.523   5.258
 4530CHOL   ROH50663   4.980  14.832   7.188
 4530CHOL    R150664   5.148  14.625   6.849
 4530CHOL    R250665   4.951  14.912   6.850
 4530CHOL    R350666   5.219  14.677   6.430
 4530CHOL    R450667   5.049  14.976   6.563
 4530CHOL    R550668   5.188  14.979   6.906
 4530CHOL    R650669   5.296  14.942   6.453
 4530CHOL    C150670   5.149  14.934   6.127
 4530CHOL    C250671   5.327  14.852   5.755
 4531CHOL   ROH50672  33.451   0.558   6.821
 4531CHOL    R150673  33.528   0.923   6.603
 4531CHOL    R250674  33.514   0.597   6.480
 4531CHOL    R350675  33.551   1.072   6.203
 4531CHOL    R450676  33.475   0.712   6.195
 4531CHOL    R550677  33.277   0.681   6.506
 4531CHOL    R650678  33.332   0.929   6.113
 4531CHOL    C150679  33.534   0.951   5.819
 4531CHOL    C250680  33.592   1.162   5.441
 4532CHOL   ROH50681  20.181   0.435   3.641
 4532CHOL    R150682  20.577   0.394   3.808
 4532CHOL    R250683  20.305   0.567   3.940
 4532CHOL    R350684  20.792   0.458   4.171
 4532CHOL    R450685  20.442   0.563   4.217
 4532CHOL    R550686  20.275   0.322   3.992
 4532CHOL    R650687  20.589   0.365   4.335
 4532CHOL    C150688  20.748   0.608   4.543
 4532CHOL    C250689  20.988   0.535   4.887
 4533CHOL   ROH50690  22.703  21.628   6.732
 4533CHOL    R150691  22.881  21.275   6.557
 4533CHOL    R250692  22.583  21.432   6.469
 4533CHOL    R350693  22.847  21.022   6.215
 4533CHOL    R450694  22.591  21.286   6.196
 4533CHOL    R550695  22.773  21.561   6.364
 4533CHOL    R650696  22.806  21.229   6.037
 4533CHOL    C150697  22.622  20.962   5.886
 4533CHOL    C250698  22.614  20.573   5.654
 4534CHOL   ROH50699  25.033  32.567   6.784
 4534CHOL    R150700  24.656  32.475   6.595
 4534CHOL    R250701  24.948  32.592   6.446
 4534CHOL    R350702  24.485  32.415   6.208
 4534CHOL    R450703  24.842  32.496   6.171
 4534CHOL    R550704  24.973  32.344   6.482
 4534CHOL    R650705  24.700  32.271   6.110
 4534CHOL    C150706  24.576  32.431   5.815
 4534CHOL    C250707  24.339  32.375   5.444
 4535CHOL   ROH50708  22.319  11.893   6.735
 4535CHOL    R150709  22.301  11.594   6.424
 4535CHOL    R250710  22.063  11.834   6.506
 4535CHOL    R350711  22.076  11.491   6.076
 4535CHOL    R450712  21.933  11.795   6.228
 4535CHOL    R550713  22.241  11.946   6.367
 4535CHOL    R650714  22.052  11.752   5.986
 4535CHOL    C150715  21.751  11.603   5.864
 4535CHOL    C250716  21.424  11.442   5.650
 4536CHOL   ROH50717   9.258  20.629   6.864
 4536CHOL    R150718   9.018  20.638   6.506
 4536CHOL    R250719   9.361  20.585   6.534
 4536CHOL    R350720   9.037  20.538   6.090
 4536CHOL    R450721   9.361  20.462   6.249
 4536CHOL    R550722   9.244  20.368   6.588
 4536CHOL    R650723   9.175  20.301   6.130
 4536CHOL    C150724   9.293  20.404   5.809
 4536CHOL    C250725   9.152  20.281   5.415
 4537CHOL   ROH50726  13.024  21.813   6.833
 4537CHOL    R150727  13.162  21.531   6.538
 4537CHOL    R250728  12.972  21.818   6.488
 4537CHOL    R350729  13.204  21.487   6.115
 4537CHOL    R450730  13.050  21.813   6.189
 4537CHOL    R550731  13.213  21.888   6.512
 4537CHOL    R650732  13.288  21.747   6.073
 4537CHOL    C150733  13.118  21.673   5.767
 4537CHOL    C250734  13.270  21.567   5.358
 4538CHOL   ROH50735   4.376   5.727   3.433
 4538CHOL    R150736   4.179   5.482   3.728
 4538CHOL    R250737   4.305   5.804   3.765
 4538CHOL    R350738   4.000   5.508   4.115
 4538CHOL    R450739   4.129   5.839   4.018
 4538CHOL    R550740   4.080   5.821   3.652
 4538CHOL    R650741   3.875   5.751   4.066
 4538CHOL    C150742   3.937   5.767   4.418
 4538CHOL    C250743   4.072   5.724   4.838
 4539CHOL   ROH50744   2.516  23.626   7.187
 4539CHOL    R150745   2.536  23.834   6.810
 4539CHOL    R250746   2.551  23.491   6.868
 4539CHOL    R350747   2.514  23.760   6.389
 4539CHOL    R450748   2.480  23.442   6.570
 4539CHOL    R550749   2.308  23.561   6.876
 4539CHOL    R650750   2.307  23.578   6.408
 4539CHOL    C150751   2.485  23.460   6.121
 4539CHOL    C250752   2.406  23.515   5.679
 4540CHOL   ROH50753  13.038  11.742   6.944
 4540CHOL    R150754  13.440  11.658   6.811
 4540CHOL    R250755  13.141  11.540   6.679
 4540CHOL    R350756  13.652  11.487   6.481
 4540CHOL    R450757  13.290  11.467   6.417
 4540CHOL    R550758  13.178  11.774   6.592
 4540CHOL    R650759  13.490  11.602   6.289
 4540CHOL    C150760  13.592  11.298   6.130
 4540CHOL    C250761  13.822  10.975   5.961
 4541CHOL   ROH50762  29.721  35.005   6.353
 4541CHOL    R150763  29.355  34.873   6.165
 4541CHOL    R250764  29.543  35.157   6.094
 4541CHOL    R350765  29.112  34.948   5.822
 4541CHOL    R450766  29.401  35.176   5.819
 4541CHOL    R550767  29.654  34.960   5.982
 4541CHOL    R650768  29.326  34.977   5.648
 4541CHOL    C150769  29.082  35.194   5.503
 4541CHOL    C250770  28.826  35.240   5.159
 4542CHOL   ROH50771   6.642   1.555   3.776
 4542CHOL    R150772   6.625   1.769   4.151
 4542CHOL    R250773   6.694   1.432   4.098
 4542CHOL    R350774   6.729   1.725   4.563
 4542CHOL    R450775   6.820   1.418   4.381
 4542CHOL    R550776   6.905   1.563   4.051
 4542CHOL    R650777   6.973   1.603   4.512
 4542CHOL    C150778   6.879   1.457   4.825
 4542CHOL    C250779   6.979   1.400   5.258
 4543CHOL   ROH50780   2.209   4.225   7.044
 4543CHOL    R150781   2.444   4.180   6.685
 4543CHOL    R250782   2.097   4.191   6.716
 4543CHOL    R350783   2.405   4.197   6.259
 4543CHOL    R450784   2.076   4.257   6.414
 4543CHOL    R550785   2.184   4.428   6.724
 4543CHOL    R650786   2.236   4.416   6.260
 4543CHOL    C150787   2.129   4.240   5.968
 4543CHOL    C250788   2.234   4.113   5.584
 4544CHOL   ROH50789   1.705   7.310   3.630
 4544CHOL    R150790   1.629   7.540   3.987
 4544CHOL    R250791   1.600   7.196   3.942
 4544CHOL    R350792   1.565   7.489   4.407
 4544CHOL    R450793   1.609   7.159   4.250
 4544CHOL    R550794   1.844   7.250   3.978
 4544CHOL    R650795   1.758   7.293   4.436
 4544CHOL    C150796   1.520   7.204   4.688
 4544CHOL    C250797   1.349   7.486   4.950
 4545CHOL   ROH50798   1.753   3.938   6.531
 4545CHOL    R150799   1.867   3.622   6.260
 4545CHOL    R250800   1.730   3.933   6.183
 4545CHOL    R350801   1.933   3.550   5.843
 4545CHOL    R450802   1.829   3.900   5.891
 4545CHOL    R550803   1.977   3.964   6.225
 4545CHOL    R650804   2.062   3.791   5.799
 4545CHOL    C150805   1.906   3.729   5.483
 4545CHOL    C250806   2.258   3.664   5.232
 4546CHOL   ROH50807  25.264  35.163   7.167
 4546CHOL    R150808  25.114  35.371   6.820
 4546CHOL    R250809  25.382  35.150   6.840
 4546CHOL    R350810  25.147  35.372   6.394
 4546CHOL    R450811  25.368  35.112   6.532
 4546CHOL    R550812  25.170  35.015   6.830
 4546CHOL    R650813  25.148  35.097   6.370
 4546CHOL    C150814  25.348  35.197   6.092
 4546CHOL    C250815  25.130  35.142   5.709
 4547CHOL   ROH50816  10.882  18.216   3.464
 4547CHOL    R150817  11.172  18.447   3.685
 4547CHOL    R250818  10.826  18.441   3.725
 4547CHOL    R350819  11.206  18.684   4.040
 4547CHOL    R450820  10.860  18.564   4.008
 4547CHOL    R550821  10.922  18.239   3.841
 4547CHOL    R650822  11.052  18.515   4.195
 4547CHOL    C150823  10.987  18.834   4.343
 4547CHOL    C250824  11.141  19.177   4.598
 4548CHOL   ROH50825  12.812   8.421   6.662
 4548CHOL    R150826  13.009   8.693   6.390
 4548CHOL    R250827  12.943   8.354   6.346
 4548CHOL    R350828  13.137   8.720   5.983
 4548CHOL    R450829  12.984   8.390   6.041
 4548CHOL    R550830  12.731   8.482   6.296
 4548CHOL    R650831  12.911   8.598   5.880
 4548CHOL    C150832  13.163   8.503   5.644
 4548CHOL    C250833  13.518   8.573   5.395
 4549CHOL   ROH50834  14.948  25.271   7.015
 4549CHOL    R150835  14.920  25.429   6.615
 4549CHOL    R250836  15.068  25.132   6.719
 4549CHOL    R350837  14.974  25.312   6.207
 4549CHOL    R450838  15.055  25.028   6.427
 4549CHOL    R550839  14.819  25.094   6.705
 4549CHOL    R650840  14.859  25.062   6.240
 4549CHOL    C150841  15.098  25.003   5.981
 4549CHOL    C250842  15.246  24.929   5.598
 4550CHOL   ROH50843  27.328  13.420   7.333
 4550CHOL    R150844  27.044  13.533   7.028
 4550CHOL    R250845  27.391  13.534   7.010
 4550CHOL    R350846  27.022  13.618   6.610
 4550CHOL    R450847  27.370  13.541   6.700
 4550CHOL    R550848  27.311  13.297   6.973
 4550CHOL    R650849  27.193  13.414   6.536
 4550CHOL    C150850  27.254  13.658   6.283
 4550CHOL    C250851  27.122  13.580   5.866
 4551CHOL   ROH50852   6.677   3.970   3.790
 4551CHOL    R150853   6.271   3.916   3.927
 4551CHOL    R250854   6.562   3.772   4.053
 4551CHOL    R350855   6.051   3.758   4.258
 4551CHOL    R450856   6.411   3.707   4.316
 4551CHOL    R550857   6.545   4.006   4.145
 4551CHOL    R650858   6.225   3.855   4.450
 4551CHOL    C150859   6.101   3.558   4.605
 4551CHOL    C250860   5.815   3.260   4.771
 4552CHOL   ROH50861   7.495   6.661   4.104
 4552CHOL    R150862   7.413   6.612   4.524
 4552CHOL    R250863   7.686   6.495   4.343
 4552CHOL    R350864   7.603   6.491   4.888
 4552CHOL    R450865   7.842   6.460   4.609
 4552CHOL    R550866   7.726   6.739   4.396
 4552CHOL    R650867   7.842   6.618   4.832
 4552CHOL    C150868   7.949   6.339   5.028
 4552CHOL    C250869   8.022   6.101   5.400
 4553CHOL   ROH50870  11.697  35.683   6.407
 4553CHOL    R150871  11.897  35.656   6.026
 4553CHOL    R250872  11.592  35.517   6.119
 4553CHOL    R350873  11.825  35.539   5.621
 4553CHOL    R450874  11.520  35.484   5.820
 4553CHOL    R550875  11.553  35.760   6.064
 4553CHOL    R650876  11.572  35.650   5.610
 4553CHOL    C150877  11.544  35.374   5.385
 4553CHOL    C250878  11.666  35.129   5.035
 4554CHOL   ROH50879  35.949   4.595   6.639
 4554CHOL    R150880  35.583   4.730   6.455
 4554CHOL    R250881  35.905   4.855   6.412
 4554CHOL    R350882  35.444   4.981   6.138
 4554CHOL    R450883  35.812   4.992   6.150
 4554CHOL    R550884  35.881   4.649   6.269
 4554CHOL    R650885  35.639   4.901   5.959
 4554CHOL    C150886  35.576   5.237   5.856
 4554CHOL    C250887  35.327   5.554   5.644
 4555CHOL   ROH50888  28.109  13.724   3.933
 4555CHOL    R150889  28.329  13.718   4.304
 4555CHOL    R250890  28.017  13.860   4.241
 4555CHOL    R350891  28.277  13.794   4.721
 4555CHOL    R450892  27.961  13.862   4.545
 4555CHOL    R550893  27.985  13.612   4.274
 4555CHOL    R650894  28.027  13.677   4.735
 4555CHOL    C150895  28.007  13.929   4.987
 4555CHOL    C250896  27.991  14.201   5.365
 4556CHOL   ROH50897  17.652  32.146   6.789
 4556CHOL    R150898  17.609  31.924   6.422
 4556CHOL    R250899  17.545  32.261   6.478
 4556CHOL    R350900  17.552  31.983   6.002
 4556CHOL    R450901  17.559  32.310   6.172
 4556CHOL    R550902  17.794  32.233   6.448
 4556CHOL    R650903  17.725  32.199   5.986
 4556CHOL    C150904  17.487  32.273   5.730
 4556CHOL    C250905  17.508  32.319   5.296
 4557CHOL   ROH50906  35.475  25.332   7.533
 4557CHOL    R150907  35.440  24.938   7.362
 4557CHOL    R250908  35.458  25.243   7.196
 4557CHOL    R350909  35.475  24.733   6.988
 4557CHOL    R450910  35.538  25.092   6.937
 4557CHOL    R550911  35.692  25.176   7.263
 4557CHOL    R650912  35.699  24.873   6.906
 4557CHOL    C150913  35.537  24.800   6.596
 4557CHOL    C250914  35.341  24.593   6.246
 4558CHOL   ROH50915  27.546  15.008   7.088
 4558CHOL    R150916  27.793  14.850   6.772
 4558CHOL    R250917  27.463  14.957   6.753
 4558CHOL    R350918  27.804  14.812   6.346
 4558CHOL    R450919  27.492  14.981   6.445
 4558CHOL    R550920  27.611  15.161   6.746
 4558CHOL    R650921  27.706  15.066   6.298
 4558CHOL    C150922  27.583  14.884   6.016
 4558CHOL    C250923  27.532  14.682   5.657
 4559CHOL   ROH50924  27.946  25.205   6.911
 4559CHOL    R150925  28.216  25.361   6.614
 4559CHOL    R250926  27.912  25.200   6.564
 4559CHOL    R350927  28.233  25.456   6.197
 4559CHOL    R450928  27.902  25.317   6.277
 4559CHOL    R550929  27.864  25.440   6.625
 4559CHOL    R650930  27.978  25.563   6.188
 4559CHOL    C150931  28.016  25.431   5.858
 4559CHOL    C250932  28.000  25.582   5.439
 4560CHOL   ROH50933   6.594  22.170   4.265
 4560CHOL    R150934   6.290  22.314   4.535
 4560CHOL    R250935   6.536  22.074   4.595
 4560CHOL    R350936   6.185  22.307   4.950
 4560CHOL    R450937   6.494  22.113   4.899
 4560CHOL    R550938   6.642  22.302   4.618
 4560CHOL    R650939   6.445  22.342   5.040
 4560CHOL    C150940   6.299  22.148   5.303
 4560CHOL    C250941   6.084  22.147   5.701
 4561CHOL   ROH50942  29.426  25.675   3.129
 4561CHOL    R150943  29.421  25.942   3.467
 4561CHOL    R250944  29.328  25.607   3.457
 4561CHOL    R350945  29.383  25.937   3.893
 4561CHOL    R450946  29.355  25.593   3.765
 4561CHOL    R550947  29.580  25.618   3.471
 4561CHOL    R650948  29.540  25.712   3.928
 4561CHOL    C150949  29.312  25.688   4.202
 4561CHOL    C250950  29.232  25.703   4.626
 4562CHOL   ROH50951  25.612   1.007   5.211
 4562CHOL    R150952  25.898   0.740   5.029
 4562CHOL    R250953  25.564   0.789   4.943
 4562CHOL    R350954  25.951   0.498   4.681
 4562CHOL    R450955  25.621   0.660   4.667
 4562CHOL    R550956  25.699   0.977   4.842
 4562CHOL    R650957  25.841   0.683   4.507
 4562CHOL    C150958  25.758   0.374   4.349
 4562CHOL    C250959  25.832   0.084   4.047
 4563CHOL   ROH50960   0.769  11.779   4.175
 4563CHOL    R150961   1.013  11.769   4.531
 4563CHOL    R250962   0.714  11.602   4.471
 4563CHOL    R350963   1.063  11.549   4.894
 4563CHOL    R450964   0.781  11.408   4.703
 4563CHOL    R550965   0.900  11.473   4.358
 4563CHOL    R650966   1.022  11.302   4.776
 4563CHOL    C150967   0.898  11.249   5.107
 4563CHOL    C250968   0.880  11.127   5.516
 4564CHOL   ROH50969  35.521  10.849   3.829
 4564CHOL    R150970  35.227  11.014   4.097
 4564CHOL    R250971  35.430  10.736   4.147
 4564CHOL    R350972  35.098  10.990   4.504
 4564CHOL    R450973  35.377  10.756   4.451
 4564CHOL    R550974  35.567  10.943   4.195
 4564CHOL    R650975  35.353  10.978   4.609
 4564CHOL    C150976  35.165  10.788   4.847
 4564CHOL    C250977  34.952  10.599   5.164
 4565CHOL   ROH50978  15.101  18.086   7.328
 4565CHOL    R150979  15.198  18.162   6.914
 4565CHOL    R250980  14.901  18.232   7.082
 4565CHOL    R350981  15.057  18.379   6.575
 4565CHOL    R450982  14.827  18.432   6.857
 4565CHOL    R550983  15.067  18.413   7.138
 4565CHOL    R650984  14.987  18.605   6.719
 4565CHOL    C150985  14.749  18.610   6.452
 4565CHOL    C250986  14.805  18.848   6.071
 4566CHOL   ROH50987  27.496   5.508   7.233
 4566CHOL    R150988  27.554   5.337   6.841
 4566CHOL    R250989  27.337   5.592   6.934
 4566CHOL    R350990  27.461   5.410   6.430
 4566CHOL    R450991  27.315   5.677   6.637
 4566CHOL    R550992  27.567   5.692   6.907
 4566CHOL    R650993  27.508   5.682   6.444
 4566CHOL    C150994  27.256   5.662   6.191
 4566CHOL    C250995  27.172   5.582   5.782
 4567CHOL   ROH50996  29.089   6.563   6.580
 4567CHOL    R150997  29.390   6.377   6.333
 4567CHOL    R250998  29.193   6.654   6.260
 4567CHOL    R350999  29.619   6.448   5.979
 4567CHOL    R451000  29.393   6.732   6.036
 4567CHOL    R551001  29.383   6.731   6.407
 4567CHOL    R651002  29.665   6.715   6.034
 4567CHOL    C151003  29.661   6.712   5.677
 4567CHOL    C251004  29.951   6.675   5.362
 4568CHOL   ROH51005   5.343  32.126   7.213
 4568CHOL    R151006   5.538  31.934   6.879
 4568CHOL    R251007   5.220  32.074   6.891
 4568CHOL    R351008   5.498  31.883   6.456
 4568CHOL    R451009   5.217  32.086   6.582
 4568CHOL    R551010   5.386  32.261   6.861
 4568CHOL    R651011   5.421  32.145   6.409
 4568CHOL    C151012   5.251  31.968   6.149
 4568CHOL    C251013   5.159  31.934   5.717
 4569CHOL   ROH51014  17.757  23.839   7.197
 4569CHOL    R151015  17.723  23.583   6.852
 4569CHOL    R251016  17.716  23.931   6.863
 4569CHOL    R351017  17.735  23.598   6.425
 4569CHOL    R451018  17.779  23.938   6.560
 4569CHOL    R551019  17.957  23.857   6.874
 4569CHOL    R651020  17.945  23.777   6.414
 4569CHOL    C151021  17.761  23.858   6.118
 4569CHOL    C251022  17.656  23.801   5.697
 4570CHOL   ROH51023   0.339  18.307   4.324
 4570CHOL    R151024   0.356  18.022   4.648
 4570CHOL    R251025   0.558  18.301   4.595
 4570CHOL    R351026   0.532  17.968   5.034
 4570CHOL    R451027   0.642  18.290   4.894
 4570CHOL    R551028   0.341  18.380   4.697
 4570CHOL    R651029   0.492  18.230   5.114
 4570CHOL    C151030   0.790  18.141   5.291
 4570CHOL    C251031   0.996  17.838   5.531
 4571CHOL   ROH51032  14.281  23.269   5.555
 4571CHOL    R151033  14.032  23.432   5.868
 4571CHOL    R251034  14.362  23.324   5.890
 4571CHOL    R351035  14.058  23.588   6.265
 4571CHOL    R451036  14.393  23.485   6.153
 4571CHOL    R551037  14.362  23.556   5.791
 4571CHOL    R651038  14.291  23.730   6.219
 4571CHOL    C151039  14.320  23.647   6.566
 4571CHOL    C251040  14.141  23.771   6.932
 4572CHOL   ROH51041  29.745   9.020   6.770
 4572CHOL    R151042  29.510   8.969   6.412
 4572CHOL    R251043  29.751   9.212   6.479
 4572CHOL    R351044  29.492   9.102   6.006
 4572CHOL    R451045  29.774   9.267   6.175
 4572CHOL    R551046  29.870   8.999   6.412
 4572CHOL    R651047  29.766   9.091   5.966
 4572CHOL    C151048  29.668   9.357   5.748
 4572CHOL    C251049  29.554   9.306   5.345
 4573CHOL   ROH51050  14.357  25.566   3.566
 4573CHOL    R151051  14.557  25.427   3.922
 4573CHOL    R251052  14.402  25.734   3.868
 4573CHOL    R351053  14.604  25.526   4.336
 4573CHOL    R451054  14.389  25.777   4.175
 4573CHOL    R551055  14.223  25.565   3.921
 4573CHOL    R651056  14.339  25.597   4.373
 4573CHOL    C151057  14.507  25.808   4.607
 4573CHOL    C251058  14.750  25.751   4.955
 4574CHOL   ROH51059  10.082  26.186   3.477
 4574CHOL    R151060  10.409  26.295   3.736
 4574CHOL    R251061  10.088  26.197   3.826
 4574CHOL    R351062  10.528  26.279   4.146
 4574CHOL    R451063  10.191  26.134   4.111
 4574CHOL    R551064  10.220  25.989   3.771
 4574CHOL    R651065  10.429  26.024   4.188
 4574CHOL    C151066  10.392  26.173   4.511
 4574CHOL    C251067  10.797  26.116   4.665
 4575CHOL   ROH51068  26.877   3.650   4.110
 4575CHOL    R151069  26.758   3.761   4.509
 4575CHOL    R251070  27.068   3.644   4.402
 4575CHOL    R351071  26.925   3.846   4.894
 4575CHOL    R451072  27.196   3.757   4.660
 4575CHOL    R551073  27.053   3.890   4.345
 4575CHOL    R651074  27.141   3.988   4.794
 4575CHOL    C151075  27.275   3.847   5.093
 4575CHOL    C251076  27.329   4.006   5.479
 4576CHOL   ROH51077  25.601   7.078   7.366
 4576CHOL    R151078  25.302   6.935   7.091
 4576CHOL    R251079  25.517   7.205   7.052
 4576CHOL    R351080  25.177   6.978   6.684
 4576CHOL    R451081  25.465   7.198   6.747
 4576CHOL    R551082  25.646   6.995   6.998
 4576CHOL    R651083  25.434   6.983   6.581
 4576CHOL    C151084  25.256   7.189   6.349
 4576CHOL    C251085  25.062   7.046   5.956
 4577CHOL   ROH51086  19.870  30.722   7.359
 4577CHOL    R151087  19.709  30.515   7.016
 4577CHOL    R251088  19.837  30.839   7.032
 4577CHOL    R351089  19.687  30.547   6.590
 4577CHOL    R451090  19.870  30.837   6.724
 4577CHOL    R551091  20.031  30.679   7.017
 4577CHOL    R651092  19.948  30.633   6.559
 4577CHOL    C151093  19.784  30.792   6.285
 4577CHOL    C251094  19.814  30.603   5.887
 4578CHOL   ROH51095  29.955  31.302   6.854
 4578CHOL    R151096  30.340  31.310   6.659
 4578CHOL    R251097  30.036  31.196   6.532
 4578CHOL    R351098  30.516  31.266   6.272
 4578CHOL    R451099  30.152  31.218   6.246
 4578CHOL    R551100  30.039  31.447   6.513
 4578CHOL    R651101  30.318  31.407   6.140
 4578CHOL    C151102  30.423  31.174   5.890
 4578CHOL    C251103  30.619  31.367   5.523
 4579CHOL   ROH51104  17.369  19.558   4.141
 4579CHOL    R151105  17.399  19.849   4.459
 4579CHOL    R251106  17.250  19.535   4.468
 4579CHOL    R351107  17.346  19.885   4.881
 4579CHOL    R451108  17.263  19.542   4.777
 4579CHOL    R551109  17.499  19.503   4.494
 4579CHOL    R651110  17.460  19.639   4.940
 4579CHOL    C151111  17.221  19.677   5.204
 4579CHOL    C251112  17.229  19.778   5.629
 4580CHOL   ROH51113   2.103  27.562   6.646
 4580CHOL    R151114   2.280  27.697   6.277
 4580CHOL    R251115   2.370  27.422   6.470
 4580CHOL    R351116   2.548  27.568   5.969
 4580CHOL    R451117   2.519  27.304   6.225
 4580CHOL    R551118   2.168  27.358   6.332
 4580CHOL    R651119   2.449  27.309   5.961
 4580CHOL    C151120   2.792  27.262   5.871
 4580CHOL    C251121   3.027  27.386   5.546
 4581CHOL   ROH51122  31.880  24.196   3.974
 4581CHOL    R151123  31.692  24.384   4.314
 4581CHOL    R251124  31.983  24.193   4.308
 4581CHOL    R351125  31.770  24.486   4.722
 4581CHOL    R451126  32.063  24.312   4.582
 4581CHOL    R551127  32.041  24.426   4.231
 4581CHOL    R651128  32.031  24.566   4.676
 4581CHOL    C151129  32.048  24.443   5.012
 4581CHOL    C251130  32.060  24.555   5.406
 4582CHOL   ROH51131  30.808   3.415   5.690
 4582CHOL    R151132  30.451   3.642   5.604
 4582CHOL    R251133  30.739   3.748   5.768
 4582CHOL    R351134  30.306   4.044   5.601
 4582CHOL    R451135  30.656   4.042   5.715
 4582CHOL    R551136  30.784   3.754   5.520
 4582CHOL    R651137  30.538   4.151   5.494
 4582CHOL    C151138  30.415   4.421   5.694
 4582CHOL    C251139  30.129   4.754   5.793
 4583CHOL   ROH51140  21.593  23.655   4.136
 4583CHOL    R151141  21.467  23.562   4.538
 4583CHOL    R251142  21.792  23.584   4.414
 4583CHOL    R351143  21.623  23.527   4.934
 4583CHOL    R451144  21.896  23.614   4.704
 4583CHOL    R551145  21.709  23.818   4.459
 4583CHOL    R651146  21.787  23.749   4.914
 4583CHOL    C151147  21.969  23.540   5.141
 4583CHOL    C251148  21.919  23.429   5.542
 4584CHOL   ROH51149  34.230  32.682   7.195
 4584CHOL    R151150  33.984  32.413   6.964
 4584CHOL    R251151  34.220  32.640   6.849
 4584CHOL    R351152  33.947  32.253   6.569
 4584CHOL    R451153  34.231  32.487   6.580
 4584CHOL    R551154  34.343  32.435   6.929
 4584CHOL    R651155  34.220  32.218   6.533
 4584CHOL    C151156  34.107  32.281   6.200
 4584CHOL    C251157  33.907  32.137   5.817
 4585CHOL   ROH51158  34.935  26.411   4.021
 4585CHOL    R151159  35.071  26.204   4.375
 4585CHOL    R251160  34.930  26.522   4.352
 4585CHOL    R351161  35.050  26.227   4.801
 4585CHOL    R451162  34.867  26.511   4.655
 4585CHOL    R551163  34.743  26.352   4.344
 4585CHOL    R651164  34.783  26.300   4.807
 4585CHOL    C151165  34.912  26.461   5.099
 4585CHOL    C251166  35.030  26.299   5.494
 4586CHOL   ROH51167  33.260  23.201   4.098
 4586CHOL    R151168  33.385  23.052   4.483
 4586CHOL    R251169  33.208  23.344   4.412
 4586CHOL    R351170  33.319  23.115   4.901
 4586CHOL    R451171  33.117  23.355   4.708
 4586CHOL    R551172  33.046  23.151   4.408
 4586CHOL    R651173  33.046  23.152   4.875
 4586CHOL    C151174  33.124  23.357   5.157
 4586CHOL    C251175  33.367  23.597   5.426
 4587CHOL   ROH51176  16.937   5.390   7.683
 4587CHOL    R151177  16.938   5.111   7.353
 4587CHOL    R251178  16.720   5.376   7.410
 4587CHOL    R351179  16.767   5.055   6.965
 4587CHOL    R451180  16.638   5.367   7.111
 4587CHOL    R551181  16.932   5.470   7.311
 4587CHOL    R651182  16.792   5.320   6.891
 4587CHOL    C151183  16.501   5.218   6.710
 4587CHOL    C251184  16.426   5.163   6.277
 4588CHOL   ROH51185  17.575  11.117   7.221
 4588CHOL    R151186  17.579  11.221   6.802
 4588CHOL    R251187  17.540  10.906   6.946
 4588CHOL    R351188  17.487  11.056   6.418
 4588CHOL    R451189  17.421  10.804   6.678
 4588CHOL    R551190  17.318  11.025   6.956
 4588CHOL    R651191  17.255  10.931   6.503
 4588CHOL    C151192  17.367  10.714   6.241
 4588CHOL    C251193  17.093  10.667   5.884
 4589CHOL   ROH51194  20.580   3.342   4.225
 4589CHOL    R151195  20.745   2.960   4.339
 4589CHOL    R251196  20.809   3.272   4.478
 4589CHOL    R351197  20.966   2.775   4.655
 4589CHOL    R451198  20.920   3.133   4.732
 4589CHOL    R551199  20.590   3.189   4.572
 4589CHOL    R651200  20.831   2.907   4.858
 4589CHOL    C151201  21.155   2.861   5.001
 4589CHOL    C251202  21.490   2.629   5.195
 4590CHOL   ROH51203  20.407  27.090   4.109
 4590CHOL    R151204  20.183  26.724   4.149
 4590CHOL    R251205  20.525  26.773   4.192
 4590CHOL    R351206  20.222  26.325   4.298
 4590CHOL    R451207  20.539  26.506   4.349
 4590CHOL    R551208  20.408  26.848   4.402
 4590CHOL    R651209  20.360  26.400   4.526
 4590CHOL    C151210  20.492  26.074   4.462
 4590CHOL    C251211  20.404  25.693   4.649
 4591CHOL   ROH51212  16.595  31.033   5.575
 4591CHOL    R151213  16.730  31.143   5.970
 4591CHOL    R251214  16.569  30.851   5.871
 4591CHOL    R351215  16.798  30.972   6.356
 4591CHOL    R451216  16.668  30.713   6.130
 4591CHOL    R551217  16.813  30.829   5.810
 4591CHOL    R651218  16.908  30.737   6.259
 4591CHOL    C151219  16.754  30.629   6.563
 4591CHOL    C251220  16.790  30.527   6.982
 4592CHOL   ROH51221  26.482  33.315   6.890
 4592CHOL    R151222  26.625  33.593   6.593
 4592CHOL    R251223  26.450  33.297   6.544
 4592CHOL    R351224  26.582  33.686   6.178
 4592CHOL    R451225  26.374  33.393   6.259
 4592CHOL    R551226  26.284  33.475   6.609
 4592CHOL    R651227  26.309  33.644   6.173
 4592CHOL    C151228  26.405  33.554   5.841
 4592CHOL    C251229  26.372  33.781   5.469
 4593CHOL   ROH51230  11.264  11.936   6.981
 4593CHOL    R151231  11.522  11.929   6.635
 4593CHOL    R251232  11.175  11.953   6.644
 4593CHOL    R351233  11.515  12.004   6.215
 4593CHOL    R451234  11.179  12.061   6.354
 4593CHOL    R551235  11.270  12.182   6.691
 4593CHOL    R651236  11.356  12.230   6.234
 4593CHOL    C151237  11.264  12.101   5.914
 4593CHOL    C251238  11.498  11.970   5.584
 4594CHOL   ROH51239  21.902  11.202   6.823
 4594CHOL    R151240  21.869  11.322   6.410
 4594CHOL    R251241  21.763  11.025   6.557
 4594CHOL    R351242  21.671  11.211   6.048
 4594CHOL    R451243  21.577  10.975   6.314
 4594CHOL    R551244  21.590  11.202   6.607
 4594CHOL    R651245  21.429  11.154   6.170
 4594CHOL    C151246  21.429  10.929   5.893
 4594CHOL    C251247  21.214  10.779   5.543
 4595CHOL   ROH51248   2.896  13.665   7.562
 4595CHOL    R151249   2.784  13.628   7.147
 4595CHOL    R251250   2.758  13.908   7.353
 4595CHOL    R351251   2.676  13.867   6.810
 4595CHOL    R451252   2.734  14.086   7.100
 4595CHOL    R551253   2.997  13.891   7.274
 4595CHOL    R651254   2.863  14.064   6.861
 4595CHOL    C151255   2.600  14.249   6.704
 4595CHOL    C251256   2.487  14.511   6.375
 4596CHOL   ROH51257   7.640   1.700   7.165
 4596CHOL    R151258   7.808   1.806   6.782
 4596CHOL    R251259   7.480   1.718   6.855
 4596CHOL    R351260   7.690   1.913   6.385
 4596CHOL    R451261   7.390   1.847   6.588
 4596CHOL    R551262   7.512   1.960   6.919
 4596CHOL    R651263   7.480   2.074   6.467
 4596CHOL    C151264   7.363   1.951   6.152
 4596CHOL    C251265   7.406   2.006   5.721
 4597CHOL   ROH51266  14.525  34.775   7.052
 4597CHOL    R151267  14.345  34.569   6.718
 4597CHOL    R251268  14.582  34.824   6.711
 4597CHOL    R351269  14.393  34.516   6.296
 4597CHOL    R451270  14.653  34.746   6.420
 4597CHOL    R551271  14.702  34.607   6.760
 4597CHOL    R651272  14.669  34.498   6.307
 4597CHOL    C151273  14.615  34.643   5.984
 4597CHOL    C251274  14.414  34.669   5.566
 4598CHOL   ROH51275  18.122  24.326   7.352
 4598CHOL    R151276  17.977  24.237   6.956
 4598CHOL    R251277  18.152  24.518   7.063
 4598CHOL    R351278  18.017  24.368   6.551
 4598CHOL    R451279  18.226  24.580   6.768
 4598CHOL    R551280  18.319  24.332   7.027
 4598CHOL    R651281  18.291  24.408   6.566
 4598CHOL    C151282  18.192  24.653   6.326
 4598CHOL    C251283  18.108  24.837   5.947
 4599CHOL   ROH51284   0.928  13.378   4.478
 4599CHOL    R151285   1.118  13.223   4.833
 4599CHOL    R251286   0.956  13.528   4.792
 4599CHOL    R351287   1.146  13.297   5.254
 4599CHOL    R451288   0.930  13.552   5.100
 4599CHOL    R551289   0.780  13.351   4.827
 4599CHOL    R651290   0.878  13.358   5.284
 4599CHOL    C151291   1.031  13.559   5.537
 4599CHOL    C251292   0.955  13.495   5.964
 4600CHOL   ROH51293  31.639   7.864   3.841
 4600CHOL    R151294  31.809   7.531   4.057
 4600CHOL    R251295  31.525   7.716   4.135
 4600CHOL    R351296  31.714   7.255   4.369
 4600CHOL    R451297  31.432   7.487   4.322
 4600CHOL    R551298  31.462   7.549   3.958
 4600CHOL    R651299  31.452   7.217   4.287
 4600CHOL    C151300  31.428   7.170   4.640
 4600CHOL    C251301  31.398   6.877   4.956
 4601CHOL   ROH51302  30.157  25.496   6.889
 4601CHOL    R151303  29.806  25.559   6.647
 4601CHOL    R251304  30.137  25.532   6.543
 4601CHOL    R351305  29.679  25.552   6.239
 4601CHOL    R451306  30.038  25.473   6.255
 4601CHOL    R551307  30.049  25.299   6.582
 4601CHOL    R651308  29.823  25.325   6.173
 4601CHOL    C151309  29.820  25.504   5.864
 4601CHOL    C251310  29.714  25.549   5.465
 4602CHOL   ROH51311  25.139  29.507   6.452
 4602CHOL    R151312  24.897  29.582   6.103
 4602CHOL    R251313  25.230  29.483   6.116
 4602CHOL    R351314  24.898  29.522   5.679
 4602CHOL    R451315  25.211  29.390   5.821
 4602CHOL    R551316  25.087  29.279   6.152
 4602CHOL    R651317  25.004  29.267   5.692
 4602CHOL    C151318  25.130  29.385   5.379
 4602CHOL    C251319  25.041  29.384   4.970
 4603CHOL   ROH51320   0.562  35.832   6.940
 4603CHOL    R151321   0.466  35.722   6.534
 4603CHOL    R251322   0.776  35.812   6.665
 4603CHOL    R351323   0.654  35.612   6.166
 4603CHOL    R451324   0.912  35.681   6.419
 4603CHOL    R551325   0.733  35.570   6.724
 4603CHOL    R651326   0.846  35.452   6.286
 4603CHOL    C151327   1.017  35.573   5.996
 4603CHOL    C251328   1.032  35.474   5.575
 4604CHOL   ROH51329   7.137  17.283   6.991
 4604CHOL    R151330   6.965  17.356   6.603
 4604CHOL    R251331   7.295  17.398   6.703
 4604CHOL    R351332   7.080  17.429   6.197
 4604CHOL    R451333   7.382  17.395   6.405
 4604CHOL    R551334   7.258  17.152   6.656
 4604CHOL    R651335   7.286  17.245   6.198
 4604CHOL    C151336   7.405  17.489   5.966
 4604CHOL    C251337   7.411  17.490   5.516
 4605CHOL   ROH51338   0.429  14.749   7.231
 4605CHOL    R151339   0.348  14.765   6.807
 4605CHOL    R251340   0.650  14.695   6.966
 4605CHOL    R351341   0.523  14.658   6.432
 4605CHOL    R451342   0.754  14.568   6.704
 4605CHOL    R551343   0.509  14.485   6.969
 4605CHOL    R651344   0.621  14.415   6.521
 4605CHOL    C151345   0.860  14.506   6.272
 4605CHOL    C251346   0.799  14.318   5.892
 4606CHOL   ROH51347  26.277   1.785   7.217
 4606CHOL    R151348  26.191   1.507   6.899
 4606CHOL    R251349  26.178   1.854   6.890
 4606CHOL    R351350  26.130   1.495   6.476
 4606CHOL    R451351  26.189   1.843   6.580
 4606CHOL    R551352  26.419   1.785   6.864
 4606CHOL    R651353  26.331   1.675   6.418
 4606CHOL    C151354  26.099   1.735   6.153
 4606CHOL    C251355  25.842   1.645   5.825
 4607CHOL   ROH51356  26.114  16.384   3.916
 4607CHOL    R151357  26.086  16.235   4.320
 4607CHOL    R251358  26.137  16.563   4.215
 4607CHOL    R351359  26.039  16.372   4.722
 4607CHOL    R451360  26.048  16.662   4.495
 4607CHOL    R551361  25.890  16.512   4.195
 4607CHOL    R651362  25.851  16.566   4.658
 4607CHOL    C151363  26.017  16.710   4.940
 4607CHOL    C251364  25.755  16.683   5.273
 4608CHOL   ROH51365  26.304   4.357   7.277
 4608CHOL    R151366  26.394   4.632   6.957
 4608CHOL    R251367  26.376   4.285   6.943
 4608CHOL    R351368  26.429   4.645   6.531
 4608CHOL    R451369  26.347   4.302   6.635
 4608CHOL    R551370  26.141   4.375   6.934
 4608CHOL    R651371  26.209   4.484   6.484
 4608CHOL    C151372  26.419   4.408   6.204
 4608CHOL    C251373  26.565   4.523   5.801
 4609CHOL   ROH51374  13.455  28.741   3.567
 4609CHOL    R151375  13.541  28.972   3.922
 4609CHOL    R251376  13.332  28.695   3.891
 4609CHOL    R351377  13.495  28.956   4.347
 4609CHOL    R451378  13.346  28.654   4.198
 4609CHOL    R551379  13.570  28.612   3.906
 4609CHOL    R651380  13.558  28.687   4.367
 4609CHOL    C151381  13.331  28.733   4.640
 4609CHOL    C251382  13.438  28.840   5.054
 4610CHOL   ROH51383  19.483  32.148   4.328
 4610CHOL    R151384  19.172  32.379   4.520
 4610CHOL    R251385  19.406  32.167   4.668
 4610CHOL    R351386  19.048  32.511   4.907
 4610CHOL    R451387  19.351  32.305   4.940
 4610CHOL    R551388  19.519  32.388   4.621
 4610CHOL    R651389  19.304  32.568   4.995
 4610CHOL    C151390  19.139  32.475   5.298
 4610CHOL    C251391  19.100  32.807   5.575
 4611CHOL   ROH51392  18.225   5.446   4.119
 4611CHOL    R151393  17.959   5.542   4.445
 4611CHOL    R251394  18.224   5.316   4.443
 4611CHOL    R351395  17.919   5.489   4.867
 4611CHOL    R451396  18.227   5.323   4.752
 4611CHOL    R551397  18.319   5.547   4.473
 4611CHOL    R651398  18.187   5.534   4.921
 4611CHOL    C151399  18.095   5.307   5.181
 4611CHOL    C251400  17.885   5.141   5.508
 4612CHOL   ROH51401  34.937  35.928   6.866
 4612CHOL    R151402  34.871  36.321   6.700
 4612CHOL    R251403  35.007  36.041   6.544
 4612CHOL    R351404  34.864  36.525   6.324
 4612CHOL    R451405  34.949  36.172   6.269
 4612CHOL    R551406  34.756  36.017   6.544
 4612CHOL    R651407  34.735  36.321   6.190
 4612CHOL    C151408  34.933  36.468   5.931
 4612CHOL    C251409  35.101  36.834   5.783
 4613CHOL   ROH51410  29.216  10.495   3.950
 4613CHOL    R151411  28.977  10.221   4.183
 4613CHOL    R251412  29.324  10.250   4.174
 4613CHOL    R351413  29.010   9.948   4.511
 4613CHOL    R451414  29.340  10.097   4.443
 4613CHOL    R551415  29.235  10.432   4.324
 4613CHOL    R651416  29.176  10.112   4.660
 4613CHOL    C151417  29.281   9.785   4.761
 4613CHOL    C251418  29.194   9.437   4.978
 4614CHOL   ROH51419  17.562   1.277   6.647
 4614CHOL    R151420  17.527   1.527   6.298
 4614CHOL    R251421  17.738   1.255   6.347
 4614CHOL    R351422  17.643   1.541   5.886
 4614CHOL    R451423  17.777   1.235   6.041
 4614CHOL    R551424  17.510   1.167   6.288
 4614CHOL    R651425  17.596   1.272   5.840
 4614CHOL    C151426  17.863   1.342   5.613
 4614CHOL    C251427  17.824   1.374   5.190
 4615CHOL   ROH51428   8.929  31.979   3.919
 4615CHOL    R151429   8.971  31.681   4.229
 4615CHOL    R251430   8.862  32.010   4.260
 4615CHOL    R351431   8.862  31.608   4.636
 4615CHOL    R451432   8.735  31.938   4.534
 4615CHOL    R551433   8.669  31.872   4.175
 4615CHOL    R651434   8.606  31.709   4.609
 4615CHOL    C151435   8.681  31.781   4.951
 4615CHOL    C251436   8.544  31.638   5.340
 4616CHOL   ROH51437  23.968  31.264   6.776
 4616CHOL    R151438  23.801  31.446   6.422
 4616CHOL    R251439  24.041  31.196   6.441
 4616CHOL    R351440  23.778  31.390   5.999
 4616CHOL    R451441  23.982  31.122   6.146
 4616CHOL    R551442  23.815  31.089   6.475
 4616CHOL    R651443  23.743  31.116   6.014
 4616CHOL    C151444  23.916  31.153   5.703
 4616CHOL    C251445  23.918  31.150   5.262
 4617CHOL   ROH51446  10.132  22.190   6.308
 4617CHOL    R151447  10.166  22.060   5.898
 4617CHOL    R251448  10.034  22.359   6.019
 4617CHOL    R351449  10.137  22.211   5.499
 4617CHOL    R451450  10.067  22.483   5.737
 4617CHOL    R551451  10.286  22.380   6.017
 4617CHOL    R651452  10.267  22.449   5.555
 4617CHOL    C151453  10.045  22.545   5.292
 4617CHOL    C251454  10.130  22.501   4.849
 4618CHOL   ROH51455  30.269  13.471   6.970
 4618CHOL    R151456  30.352  13.667   6.594
 4618CHOL    R251457  30.521  13.399   6.739
 4618CHOL    R351458  30.580  13.615   6.236
 4618CHOL    R451459  30.643  13.331   6.462
 4618CHOL    R551460  30.312  13.310   6.629
 4618CHOL    R651461  30.528  13.344   6.215
 4618CHOL    C151462  30.852  13.370   6.067
 4618CHOL    C251463  30.952  13.400   5.644
 4619CHOL   ROH51464   3.133  34.834   6.952
 4619CHOL    R151465   3.035  34.698   6.555
 4619CHOL    R251466   3.202  34.988   6.647
 4619CHOL    R351467   3.127  34.777   6.145
 4619CHOL    R451468   3.312  35.012   6.359
 4619CHOL    R551469   3.367  34.798   6.655
 4619CHOL    R651470   3.397  34.816   6.189
 4619CHOL    C151471   3.334  35.031   5.910
 4619CHOL    C251472   3.155  35.121   5.538
 4620CHOL   ROH51473   6.940  32.807   6.617
 4620CHOL    R151474   6.738  32.909   6.250
 4620CHOL    R251475   7.046  32.753   6.289
 4620CHOL    R351476   6.753  32.832   5.829
 4620CHOL    R451477   7.028  32.652   5.996
 4620CHOL    R551478   6.866  32.579   6.321
 4620CHOL    R651479   6.810  32.563   5.857
 4620CHOL    C151480   6.974  32.643   5.550
 4620CHOL    C251481   6.831  32.504   5.175
 4621CHOL   ROH51482   3.901  29.607   6.933
 4621CHOL    R151483   3.652  29.601   6.581
 4621CHOL    R251484   3.986  29.697   6.607
 4621CHOL    R351485   3.680  29.627   6.155
 4621CHOL    R451486   4.016  29.661   6.301
 4621CHOL    R551487   3.978  29.445   6.599
 4621CHOL    R651488   3.909  29.471   6.137
 4621CHOL    C151489   3.946  29.692   5.858
 4621CHOL    C251490   3.847  29.645   5.452
 4622CHOL   ROH51491  16.726  10.108   7.339
 4622CHOL    R151492  16.813  10.299   6.962
 4622CHOL    R251493  16.646   9.999   7.017
 4622CHOL    R351494  16.708  10.280   6.548
 4622CHOL    R451495  16.527  10.017   6.732
 4622CHOL    R551496  16.483  10.188   7.057
 4622CHOL    R651497  16.439  10.236   6.595
 4622CHOL    C151498  16.491  10.063   6.286
 4622CHOL    C251499  16.611  10.018   5.867
 4623CHOL   ROH51500  12.997  18.723   7.078
 4623CHOL    R151501  13.379  18.611   6.909
 4623CHOL    R251502  13.077  18.662   6.744
 4623CHOL    R351503  13.578  18.579   6.533
 4623CHOL    R451504  13.232  18.693   6.478
 4623CHOL    R551505  13.180  18.887   6.788
 4623CHOL    R651506  13.473  18.814   6.431
 4623CHOL    C151507  13.514  18.616   6.136
 4623CHOL    C251508  13.771  18.502   5.789
 4624CHOL   ROH51509  34.702  33.403   7.063
 4624CHOL    R151510  34.967  33.261   6.753
 4624CHOL    R251511  34.619  33.272   6.750
 4624CHOL    R351512  34.965  33.150   6.340
 4624CHOL    R451513  34.625  33.246   6.442
 4624CHOL    R551514  34.704  33.503   6.696
 4624CHOL    R651515  34.798  33.356   6.262
 4624CHOL    C151516  34.717  33.099   6.027
 4624CHOL    C251517  34.770  32.923   5.617
 4625CHOL   ROH51518  15.776   0.712   6.666
 4625CHOL    R151519  15.550   0.729   6.300
 4625CHOL    R251520  15.894   0.758   6.341
 4625CHOL    R351521  15.603   0.717   5.875
 4625CHOL    R451522  15.932   0.695   6.040
 4625CHOL    R551523  15.835   0.513   6.348
 4625CHOL    R651524  15.796   0.519   5.882
 4625CHOL    C151525  15.890   0.706   5.593
 4625CHOL    C251526  15.725   0.620   5.201
 4626CHOL   ROH51527  24.249  30.525   4.346
 4626CHOL    R151528  24.063  30.478   4.733
 4626CHOL    R251529  23.909  30.513   4.423
 4626CHOL    R351530  23.684  30.393   4.911
 4626CHOL    R451531  23.648  30.398   4.544
 4626CHOL    R551532  23.982  30.273   4.447
 4626CHOL    R651533  23.616  30.197   4.727
 4626CHOL    C151534  23.296  30.331   4.816
 4626CHOL    C251535  23.011  30.289   5.145
 4627CHOL   ROH51536  10.904  13.614   4.251
 4627CHOL    R151537  10.805  13.986   4.446
 4627CHOL    R251538  10.871  13.677   4.592
 4627CHOL    R351539  10.805  14.167   4.834
 4627CHOL    R451540  10.924  13.820   4.862
 4627CHOL    R551541  11.092  13.784   4.534
 4627CHOL    R651542  11.048  14.058   4.910
 4627CHOL    C151543  10.875  14.084   5.222
 4627CHOL    C251544  10.871  14.399   5.507
 4628CHOL   ROH51545  12.719  22.775   7.176
 4628CHOL    R151546  12.825  23.002   6.824
 4628CHOL    R251547  12.830  22.656   6.867
 4628CHOL    R351548  12.904  22.950   6.407
 4628CHOL    R451549  12.832  22.622   6.559
 4628CHOL    R551550  12.592  22.725   6.821
 4628CHOL    R651551  12.701  22.766   6.368
 4628CHOL    C151552  12.943  22.664   6.125
 4628CHOL    C251553  13.167  22.698   5.725
 4629CHOL   ROH51554  25.689  34.290   6.859
 4629CHOL    R151555  25.499  34.014   6.587
 4629CHOL    R251556  25.527  34.359   6.558
 4629CHOL    R351557  25.341  33.995   6.190
 4629CHOL    R451558  25.465  34.335   6.255
 4629CHOL    R551559  25.745  34.257   6.485
 4629CHOL    R651560  25.545  34.144   6.077
 4629CHOL    C151561  25.268  34.225   5.867
 4629CHOL    C251562  25.049  34.207   5.519
 4630CHOL   ROH51563  24.022  10.283   4.268
 4630CHOL    R151564  24.355  10.213   4.533
 4630CHOL    R251565  24.123  10.473   4.543
 4630CHOL    R351566  24.511  10.341   4.910
 4630CHOL    R451567  24.202  10.528   4.837
 4630CHOL    R551568  24.017  10.269   4.648
 4630CHOL    R651569  24.265  10.351   5.036
 4630CHOL    C151570  24.446  10.607   5.206
 4630CHOL    C251571  24.684  10.672   5.579
 4631CHOL   ROH51572  13.740  26.937   3.644
 4631CHOL    R151573  13.636  27.168   3.993
 4631CHOL    R251574  13.560  26.835   3.924
 4631CHOL    R351575  13.485  27.120   4.390
 4631CHOL    R451576  13.503  26.791   4.226
 4631CHOL    R551577  13.797  26.845   4.008
 4631CHOL    R651578  13.633  26.892   4.443
 4631CHOL    C151579  13.340  26.840   4.642
 4631CHOL    C251580  13.118  27.023   4.981
 4632CHOL   ROH51581  24.322  25.946   6.714
 4632CHOL    R151582  24.281  25.864   6.293
 4632CHOL    R251583  24.125  26.113   6.479
 4632CHOL    R351584  24.127  26.038   5.934
 4632CHOL    R451585  24.062  26.265   6.217
 4632CHOL    R551586  24.359  26.190   6.425
 4632CHOL    R651587  24.216  26.293   5.993
 4632CHOL    C151588  23.921  26.358   5.800
 4632CHOL    C251589  23.601  26.266   5.516
 4633CHOL   ROH51590  33.273  10.823   3.584
 4633CHOL    R151591  33.036  10.599   3.866
 4633CHOL    R251592  33.365  10.707   3.899
 4633CHOL    R351593  33.037  10.476   4.276
 4633CHOL    R451594  33.343  10.668   4.206
 4633CHOL    R551595  33.214  10.902   3.951
 4633CHOL    R651596  33.132  10.717   4.372
 4633CHOL    C151597  33.265  10.483   4.608
 4633CHOL    C251598  33.080  10.473   4.991
 4634CHOL   ROH51599  14.970  11.573   3.805
 4634CHOL    R151600  15.341  11.486   4.008
 4634CHOL    R251601  15.085  11.700   4.109
 4634CHOL    R351602  15.531  11.536   4.388
 4634CHOL    R451603  15.197  11.689   4.398
 4634CHOL    R551604  15.017  11.464   4.166
 4634CHOL    R651605  15.304  11.479   4.535
 4634CHOL    C151606  15.477  11.707   4.749
 4634CHOL    C251607  15.622  11.423   5.019
 4635CHOL   ROH51608  32.895  19.818   7.455
 4635CHOL    R151609  33.126  19.706   7.109
 4635CHOL    R251610  32.967  20.009   7.173
 4635CHOL    R351611  33.313  19.878   6.765
 4635CHOL    R451612  33.146  20.143   6.958
 4635CHOL    R551613  33.186  20.007   7.300
 4635CHOL    R651614  33.409  20.100   6.900
 4635CHOL    C151615  33.357  20.229   6.571
 4635CHOL    C251616  33.650  20.452   6.339
 4636CHOL   ROH51617  29.212  17.548   6.573
 4636CHOL    R151618  29.454  17.227   6.416
 4636CHOL    R251619  29.206  17.409   6.253
 4636CHOL    R351620  29.559  17.041   6.046
 4636CHOL    R451621  29.322  17.315   5.982
 4636CHOL    R551622  29.418  17.547   6.254
 4636CHOL    R651623  29.582  17.280   5.907
 4636CHOL    C151624  29.477  17.052   5.651
 4636CHOL    C251625  29.602  16.747   5.363
 4637CHOL   ROH51626   3.184  35.729   3.967
 4637CHOL    R151627   3.558  35.522   4.028
 4637CHOL    R251628   3.316  35.603   4.264
 4637CHOL    R351629   3.764  35.288   4.321
 4637CHOL    R451630   3.436  35.391   4.455
 4637CHOL    R551631   3.239  35.396   4.142
 4637CHOL    R651632   3.540  35.145   4.397
 4637CHOL    C151633   3.730  35.154   4.700
 4637CHOL    C251634   4.075  34.975   4.935
 4638CHOL   ROH51635   9.244  18.524   7.206
 4638CHOL    R151636   9.359  18.252   6.891
 4638CHOL    R251637   9.223  18.571   6.861
 4638CHOL    R351638   9.429  18.242   6.469
 4638CHOL    R451639   9.324  18.581   6.568
 4638CHOL    R551640   9.469  18.595   6.908
 4638CHOL    R651641   9.558  18.487   6.462
 4638CHOL    C151642   9.404  18.473   6.139
 4638CHOL    C251643   9.457  18.263   5.746
 4639CHOL   ROH51644  21.096   6.445   6.849
 4639CHOL    R151645  20.904   6.392   6.466
 4639CHOL    R251646  21.234   6.484   6.531
 4639CHOL    R351647  20.998   6.356   6.050
 4639CHOL    R451648  21.309   6.404   6.241
 4639CHOL    R551649  21.216   6.234   6.557
 4639CHOL    R651650  21.219   6.195   6.091
 4639CHOL    C151651  21.308   6.372   5.793
 4639CHOL    C251652  21.370   6.370   5.359
 4640CHOL   ROH51653  21.450  22.862   5.438
 4640CHOL    R151654  21.605  23.236   5.289
 4640CHOL    R251655  21.337  23.185   5.505
 4640CHOL    R351656  21.580  23.657   5.359
 4640CHOL    R451657  21.358  23.481   5.594
 4640CHOL    R551658  21.550  23.168   5.639
 4640CHOL    R651659  21.580  23.635   5.635
 4640CHOL    C151660  21.385  23.930   5.583
 4640CHOL    C251661  21.358  24.366   5.645
 4641CHOL   ROH51662  27.881  29.492   6.625
 4641CHOL    R151663  27.939  29.294   6.246
 4641CHOL    R251664  27.838  29.622   6.304
 4641CHOL    R351665  27.974  29.379   5.829
 4641CHOL    R451666  27.916  29.693   6.013
 4641CHOL    R551667  28.088  29.612   6.330
 4641CHOL    R651668  28.128  29.606   5.864
 4641CHOL    C151669  27.949  29.683   5.565
 4641CHOL    C251670  27.984  29.644   5.142
 4642CHOL   ROH51671  26.457   1.128   7.048
 4642CHOL    R151672  26.575   1.387   6.724
 4642CHOL    R251673  26.492   1.049   6.710
 4642CHOL    R351674  26.584   1.401   6.296
 4642CHOL    R451675  26.446   1.078   6.404
 4642CHOL    R551676  26.277   1.182   6.717
 4642CHOL    R651677  26.335   1.284   6.264
 4642CHOL    C151678  26.508   1.176   5.970
 4642CHOL    C251679  26.341   1.505   5.768
 4643CHOL   ROH51680  28.806   3.496   4.185
 4643CHOL    R151681  28.775   3.541   4.613
 4643CHOL    R251682  28.533   3.426   4.391
 4643CHOL    R351683  28.525   3.430   4.941
 4643CHOL    R451684  28.381   3.298   4.629
 4643CHOL    R551685  28.692   3.236   4.438
 4643CHOL    R651686  28.481   3.173   4.850
 4643CHOL    C151687  28.177   3.244   5.026
 4643CHOL    C251688  28.099   3.199   5.468
 4644CHOL   ROH51689  30.967  26.314   6.919
 4644CHOL    R151690  30.999  26.687   6.704
 4644CHOL    R251691  30.987  26.364   6.575
 4644CHOL    R351692  30.965  26.846   6.309
 4644CHOL    R451693  30.908  26.482   6.299
 4644CHOL    R551694  30.751  26.435   6.631
 4644CHOL    R651695  30.745  26.693   6.241
 4644CHOL    C151696  30.908  26.733   5.926
 4644CHOL    C251697  30.822  27.014   5.577
 4645CHOL   ROH51698   0.377   9.723   7.225
 4645CHOL    R151699   0.535   9.735   6.824
 4645CHOL    R251700   0.242   9.879   6.944
 4645CHOL    R351701   0.481   9.940   6.452
 4645CHOL    R451702   0.237  10.066   6.697
 4645CHOL    R551703   0.435  10.029   7.008
 4645CHOL    R651704   0.445  10.188   6.568
 4645CHOL    C151705   0.246  10.213   6.272
 4645CHOL    C251706   0.211  10.395   5.896
 4646CHOL   ROH51707   8.658  27.595   3.609
 4646CHOL    R151708   8.509  27.391   3.959
 4646CHOL    R251709   8.654  27.706   3.940
 4646CHOL    R351710   8.407  27.464   4.368
 4646CHOL    R451711   8.531  27.775   4.216
 4646CHOL    R551712   8.413  27.726   3.868
 4646CHOL    R651713   8.287  27.708   4.318
 4646CHOL    C151714   8.415  27.753   4.649
 4646CHOL    C251715   8.306  27.677   5.055
 4647CHOL   ROH51716  10.723  34.506   6.783
 4647CHOL    R151717  10.658  34.221   6.466
 4647CHOL    R251718  10.498  34.526   6.518
 4647CHOL    R351719  10.465  34.187   6.085
 4647CHOL    R451720  10.405  34.523   6.222
 4647CHOL    R551721  10.721  34.572   6.409
 4647CHOL    R651722  10.539  34.439   5.999
 4647CHOL    C151723  10.227  34.390   5.831
 4647CHOL    C251724   9.978  34.259   5.476
 4648CHOL   ROH51725   9.700  17.029   7.426
 4648CHOL    R151726   9.759  17.247   7.059
 4648CHOL    R251727   9.741  16.903   7.104
 4648CHOL    R351728   9.755  17.191   6.635
 4648CHOL    R451729   9.684  16.870   6.801
 4648CHOL    R551730   9.506  16.993   7.102
 4648CHOL    R651731   9.533  17.027   6.636
 4648CHOL    C151732   9.716  16.905   6.354
 4648CHOL    C251733   9.897  16.923   5.960
 4649CHOL   ROH51734  20.697   3.303   6.713
 4649CHOL    R151735  20.623   3.210   6.298
 4649CHOL    R251736  20.900   3.367   6.437
 4649CHOL    R351737  20.824   3.190   5.921
 4649CHOL    R451738  21.061   3.302   6.180
 4649CHOL    R551739  20.926   3.119   6.472
 4649CHOL    R651740  21.055   3.077   6.025
 4649CHOL    C151741  21.180   3.266   5.748
 4649CHOL    C251742  21.340   3.131   5.371
 4650CHOL   ROH51743  10.596  12.621   6.935
 4650CHOL    R151744  10.440  12.414   6.591
 4650CHOL    R251745  10.461  12.757   6.643
 4650CHOL    R351746  10.322  12.485   6.186
 4650CHOL    R451747  10.430  12.802   6.338
 4650CHOL    R551748  10.689  12.675   6.570
 4650CHOL    R651749  10.531  12.657   6.131
 4650CHOL    C151750  10.273  12.782   5.918
 4650CHOL    C251751   9.877  12.615   5.849
 4651CHOL   ROH51752   3.680  19.046   4.173
 4651CHOL    R151753   3.453  18.835   4.473
 4651CHOL    R251754   3.789  18.795   4.389
 4651CHOL    R351755   3.508  18.576   4.809
 4651CHOL    R451756   3.836  18.654   4.661
 4651CHOL    R551757   3.769  18.997   4.539
 4651CHOL    R651758   3.729  18.711   4.906
 4651CHOL    C151759   3.793  18.375   5.010
 4651CHOL    C251760   3.693  18.381   5.438
 4652CHOL   ROH51761  18.545  31.854   6.199
 4652CHOL    R151762  18.750  32.092   5.903
 4652CHOL    R251763  18.481  31.877   5.857
 4652CHOL    R351764  18.709  32.228   5.499
 4652CHOL    R451765  18.421  32.016   5.587
 4652CHOL    R551766  18.392  32.095   5.947
 4652CHOL    R651767  18.438  32.281   5.521
 4652CHOL    C151768  18.471  32.192   5.176
 4652CHOL    C251769  18.674  32.301   4.817
 4653CHOL   ROH51770   3.532  34.259   3.921
 4653CHOL    R151771   3.661  34.223   4.331
 4653CHOL    R251772   3.350  34.323   4.212
 4653CHOL    R351773   3.505  34.216   4.729
 4653CHOL    R451774   3.228  34.264   4.491
 4653CHOL    R551775   3.360  34.071   4.203
 4653CHOL    R651776   3.285  34.061   4.665
 4653CHOL    C151777   3.160  34.259   4.935
 4653CHOL    C251778   3.029  34.287   5.359
 4654PAPS   CNO51779  11.516   3.291   2.657
 4654PAPS   PO451780  11.204   3.201   2.841
 4654PAPS   GL151781  11.212   3.097   3.206
 4654PAPS   GL251782  11.446   3.247   3.237
 4654PAPS   C1A51783  11.135   2.964   3.510
 4654PAPS   D2A51784  10.861   2.874   3.733
 4654PAPS   D3A51785  10.578   2.741   4.052
 4654PAPS   D4A51786  10.360   2.388   3.953
 4654PAPS   C5A51787  10.062   2.085   4.175
 4654PAPS   C1B51788  11.528   3.591   3.529
 4654PAPS   C2B51789  11.289   3.768   3.926
 4654PAPS   C3B51790  11.139   3.554   4.347
 4654PAPS   C4B51791  10.869   3.442   4.744
 4655PAPS   CNO51792  27.384  33.383   2.666
 4655PAPS   PO451793  27.257  33.727   2.769
 4655PAPS   GL151794  27.275  33.666   3.165
 4655PAPS   GL251795  27.340  33.410   3.169
 4655PAPS   C1A51796  27.029  33.663   3.331
 4655PAPS   D2A51797  26.920  34.015   3.396
 4655PAPS   D3A51798  26.470  34.019   3.499
 4655PAPS   D4A51799  26.306  33.922   3.932
 4655PAPS   C5A51800  26.494  33.710   4.309
 4655PAPS   C1B51801  27.161  33.247   3.546
 4655PAPS   C2B51802  27.180  33.037   4.026
 4655PAPS   C3B51803  27.116  32.998   4.485
 4655PAPS   C4B51804  27.199  32.629   4.810
 4656PAPS   CNO51805  22.899  22.909   3.192
 4656PAPS   PO451806  22.690  23.223   3.062
 4656PAPS   GL151807  22.584  23.269   3.478
 4656PAPS   GL251808  22.753  23.140   3.595
 4656PAPS   C1A51809  22.520  23.565   3.727
 4656PAPS   D2A51810  22.788  23.413   3.990
 4656PAPS   D3A51811  22.690  23.661   4.332
 4656PAPS   D4A51812  22.619  24.180   4.250
 4656PAPS   C5A51813  22.339  24.211   3.834
 4656PAPS   C1B51814  22.910  22.957   3.997
 4656PAPS   C2B51815  22.948  23.168   4.550
 4656PAPS   C3B51816  23.231  23.195   4.906
 4656PAPS   C4B51817  23.541  23.167   5.247
 4657PAPS   CNO51818  25.941  19.357   3.043
 4657PAPS   PO451819  26.157  19.252   3.311
 4657PAPS   GL151820  26.315  19.487   3.610
 4657PAPS   GL251821  26.557  19.258   3.531
 4657PAPS   C1A51822  26.216  19.403   3.959
 4657PAPS   D2A51823  26.023  19.382   4.305
 4657PAPS   D3A51824  25.997  19.057   4.620
 4657PAPS   D4A51825  26.258  18.816   4.918
 4657PAPS   C5A51826  26.704  18.874   5.026
 4657PAPS   C1B51827  26.891  19.175   3.786
 4657PAPS   C2B51828  27.038  18.840   4.119
 4657PAPS   C3B51829  27.272  18.828   4.528
 4657PAPS   C4B51830  27.231  18.881   4.999
 4658PAPS   CNO51831  24.657  31.902   3.195
 4658PAPS   PO451832  24.534  31.626   3.429
 4658PAPS   GL151833  24.567  31.693   3.830
 4658PAPS   GL251834  24.768  31.893   3.848
 4658PAPS   C1A51835  24.691  31.459   4.059
 4658PAPS   D2A51836  24.667  31.093   4.206
 4658PAPS   D3A51837  24.722  31.314   4.575
 4658PAPS   D4A51838  24.343  30.983   4.595
 4658PAPS   C5A51839  24.018  30.865   4.905
 4658PAPS   C1B51840  24.915  31.765   4.286
 4658PAPS   C2B51841  25.167  31.667   4.786
 4658PAPS   C3B51842  25.542  31.890   5.011
 4658PAPS   C4B51843  26.069  31.959   5.250
 4659PAPS   CNO51844  23.031   3.181   2.946
 4659PAPS   PO451845  23.338   3.178   3.160
 4659PAPS   GL151846  23.385   3.307   3.486
 4659PAPS   GL251847  23.664   3.283   3.512
 4659PAPS   C1A51848  23.300   3.286   3.811
 4659PAPS   D2A51849  23.300   3.417   4.197
 4659PAPS   D3A51850  23.023   3.210   4.491
 4659PAPS   D4A51851  22.713   2.988   4.740
 4659PAPS   C5A51852  22.719   3.317   4.989
 4659PAPS   C1B51853  23.733   3.374   3.963
 4659PAPS   C2B51854  23.907   3.202   4.404
 4659PAPS   C3B51855  23.901   3.191   4.808
 4659PAPS   C4B51856  23.701   2.751   5.026
 4660PAPS   CNO51857  27.507   1.223   3.396
 4660PAPS   PO451858  27.136   1.358   3.374
 4660PAPS   GL151859  26.949   1.305   3.770
 4660PAPS   GL251860  27.141   1.456   3.928
 4660PAPS   C1A51861  26.644   1.076   3.863
 4660PAPS   D2A51862  26.434   0.949   4.176
 4660PAPS   D3A51863  26.217   0.950   4.610
 4660PAPS   D4A51864  26.088   1.174   4.945
 4660PAPS   C5A51865  26.103   1.151   5.440
 4660PAPS   C1B51866  27.061   1.584   4.335
 4660PAPS   C2B51867  27.015   1.556   4.885
 4660PAPS   C3B51868  26.848   1.434   5.388
 4660PAPS   C4B51869  26.888   1.421   5.806
 4661PAPS   CNO51870  25.851   0.617   3.164
 4661PAPS   PO451871  25.981   0.515   3.486
 4661PAPS   GL151872  25.923   0.550   3.918
 4661PAPS   GL251873  25.726   0.729   3.864
 4661PAPS   C1A51874  26.103   0.664   4.180
 4661PAPS   D2A51875  26.288   0.356   4.347
 4661PAPS   D3A51876  26.139   0.025   4.632
 4661PAPS   D4A51877  26.395  -0.388   4.737
 4661PAPS   C5A51878  26.386  -0.555   5.193
 4661PAPS   C1B51879  25.562   0.884   4.229
 4661PAPS   C2B51880  25.303   1.004   4.608
 4661PAPS   C3B51881  25.060   1.294   4.929
 4661PAPS   C4B51882  24.942   1.780   5.204
 4662PAPS   CNO51883   9.334  17.054   3.376
 4662PAPS   PO451884   9.195  17.437   3.271
 4662PAPS   GL151885   9.200  17.718   3.538
 4662PAPS   GL251886   8.927  17.699   3.628
 4662PAPS   C1A51887   9.278  17.673   3.909
 4662PAPS   D2A51888   9.324  17.528   4.238
 4662PAPS   D3A51889   9.529  17.429   4.636
 4662PAPS   D4A51890   9.844  17.274   4.518
 4662PAPS   C5A51891  10.269  17.371   4.574
 4662PAPS   C1B51892   8.926  17.855   4.052
 4662PAPS   C2B51893   8.962  17.652   4.619
 4662PAPS   C3B51894   9.213  17.575   4.970
 4662PAPS   C4B51895   9.622  17.410   5.182
 4663PAPS   CNO51896  21.745   1.155   2.797
 4663PAPS   PO451897  21.497   1.420   2.812
 4663PAPS   GL151898  21.607   1.444   3.206
 4663PAPS   GL251899  21.597   1.144   3.217
 4663PAPS   C1A51900  21.779   1.610   3.446
 4663PAPS   D2A51901  21.961   1.841   3.738
 4663PAPS   D3A51902  21.747   2.229   3.976
 4663PAPS   D4A51903  21.724   2.742   3.991
 4663PAPS   C5A51904  21.228   2.782   3.969
 4663PAPS   C1B51905  21.388   0.901   3.528
 4663PAPS   C2B51906  21.209   0.730   3.986
 4663PAPS   C3B51907  21.169   0.871   4.475
 4663PAPS   C4B51908  21.068   1.054   4.939
 4664PAPS   CNO51909  32.443  34.807   3.116
 4664PAPS   PO451910  32.641  35.112   3.306
 4664PAPS   GL151911  32.893  34.932   3.581
 4664PAPS   GL251912  32.673  35.009   3.741
 4664PAPS   C1A51913  33.092  34.980   3.882
 4664PAPS   D2A51914  33.269  34.935   4.201
 4664PAPS   D3A51915  33.617  35.006   4.440
 4664PAPS   D4A51916  33.838  35.393   4.589
 4664PAPS   C5A51917  33.581  35.186   4.909
 4664PAPS   C1B51918  32.770  35.012   4.123
 4664PAPS   C2B51919  32.691  34.883   4.672
 4664PAPS   C3B51920  32.370  34.968   5.032
 4664PAPS   C4B51921  31.915  35.114   5.115
 4665PAPS   CNO51922  35.108  15.076   3.262
 4665PAPS   PO451923  35.042  14.726   3.424
 4665PAPS   GL151924  34.845  14.742   3.759
 4665PAPS   GL251925  34.829  14.463   3.793
 4665PAPS   C1A51926  35.019  14.735   4.106
 4665PAPS   D2A51927  34.984  14.445   4.409
 4665PAPS   D3A51928  34.684  14.518   4.709
 4665PAPS   D4A51929  34.512  14.256   5.106
 4665PAPS   C5A51930  34.460  14.389   5.555
 4665PAPS   C1B51931  34.633  14.341   4.152
 4665PAPS   C2B51932  34.350  14.098   4.514
 4665PAPS   C3B51933  34.029  14.064   4.896
 4665PAPS   C4B51934  33.760  14.071   5.250
 4666PAPS   CNO51935  16.766  30.295   2.862
 4666PAPS   PO451936  17.127  30.422   2.966
 4666PAPS   GL151937  17.050  30.335   3.385
 4666PAPS   GL251938  16.783  30.431   3.325
 4666PAPS   C1A51939  17.215  30.398   3.721
 4666PAPS   D2A51940  17.122  30.739   3.975
 4666PAPS   D3A51941  16.898  30.813   4.350
 4666PAPS   D4A51942  16.933  31.129   4.641
 4666PAPS   C5A51943  16.965  31.147   5.108
 4666PAPS   C1B51944  16.782  30.392   3.714
 4666PAPS   C2B51945  17.107  30.226   4.178
 4666PAPS   C3B51946  17.197  30.045   4.591
 4666PAPS   C4B51947  17.168  29.633   4.842
 4667PAPS   CNO51948  10.196  35.415   2.854
 4667PAPS   PO451949  10.422  35.626   3.134
 4667PAPS   GL151950  10.554  35.560   3.505
 4667PAPS   GL251951  10.474  35.876   3.480
 4667PAPS   C1A51952  10.500  35.588   3.890
 4667PAPS   D2A51953  10.377  35.660   4.244
 4667PAPS   D3A51954  10.412  35.758   4.669
 4667PAPS   D4A51955  10.453  35.307   4.775
 4667PAPS   C5A51956  10.694  35.563   5.034
 4667PAPS   C1B51957  10.312  35.996   3.883
 4667PAPS   C2B51958  10.196  36.109   4.371
 4667PAPS   C3B51959  10.104  36.228   4.844
 4667PAPS   C4B51960   9.877  36.133   5.308
 4668PAPS   CNO51961   1.906   8.776   3.156
 4668PAPS   PO451962   1.964   8.763   3.504
 4668PAPS   GL151963   2.190   8.479   3.750
 4668PAPS   GL251964   2.310   8.419   3.892
 4668PAPS   C1A51965   2.125   8.188   3.584
 4668PAPS   D2A51966   2.071   7.938   3.865
 4668PAPS   D3A51967   1.933   7.767   4.248
 4668PAPS   D4A51968   1.960   7.652   4.688
 4668PAPS   C5A51969   1.863   7.367   5.030
 4668PAPS   C1B51970   2.131   8.221   4.226
 4668PAPS   C2B51971   1.874   8.199   4.665
 4668PAPS   C3B51972   2.009   8.170   5.116
 4668PAPS   C4B51973   1.993   8.258   5.561
 4669PAPS   CNO51974   8.157  34.591   2.828
 4669PAPS   PO451975   7.956  34.894   2.989
 4669PAPS   GL151976   8.012  34.756   3.446
 4669PAPS   GL251977   7.775  34.991   3.519
 4669PAPS   C1A51978   8.004  34.639   3.784
 4669PAPS   D2A51979   7.773  34.593   4.098
 4669PAPS   D3A51980   7.850  34.500   4.541
 4669PAPS   D4A51981   8.048  34.336   4.922
 4669PAPS   C5A51982   7.873  34.244   5.390
 4669PAPS   C1B51983   7.904  35.104   3.929
 4669PAPS   C2B51984   7.737  34.999   4.427
 4669PAPS   C3B51985   7.586  35.093   4.802
 4669PAPS   C4B51986   7.513  35.228   5.243
 4670PAPS   CNO51987  27.859  12.507   3.836
 4670PAPS   PO451988  27.688  12.221   3.663
 4670PAPS   GL151989  27.808  12.049   3.996
 4670PAPS   GL251990  27.703  12.197   4.178
 4670PAPS   C1A51991  28.076  11.787   4.093
 4670PAPS   D2A51992  28.335  11.620   4.306
 4670PAPS   D3A51993  28.695  11.606   4.590
 4670PAPS   D4A51994  28.828  11.364   4.982
 4670PAPS   C5A51995  28.882  11.120   4.576
 4670PAPS   C1B51996  27.674  12.088   4.559
 4670PAPS   C2B51997  27.482  11.814   5.030
 4670PAPS   C3B51998  27.588  11.611   5.505
 4670PAPS   C4B51999  27.630  11.254   5.923
 4671PAPS   CNO52000  25.922  10.688   2.993
 4671PAPS   PO452001  25.887  10.924   3.291
 4671PAPS   GL152002  25.957  10.961   3.743
 4671PAPS   GL252003  26.233  10.903   3.684
 4671PAPS   C1A52004  25.993  11.257   3.975
 4671PAPS   D2A52005  26.188  11.520   4.152
 4671PAPS   D3A52006  25.833  11.476   4.396
 4671PAPS   D4A52007  25.592  11.738   4.595
 4671PAPS   C5A52008  25.493  12.014   4.985
 4671PAPS   C1B52009  26.446  11.068   4.119
 4671PAPS   C2B52010  26.750  11.106   4.559
 4671PAPS   C3B52011  26.636  11.153   5.075
 4671PAPS   C4B52012  26.702  10.992   5.552
 4672PAPS   CNO52013  12.332  32.803   3.420
 4672PAPS   PO452014  12.319  32.920   3.762
 4672PAPS   GL152015  12.007  32.777   4.031
 4672PAPS   GL252016  11.926  33.019   4.138
 4672PAPS   C1A52017  11.999  32.449   4.168
 4672PAPS   D2A52018  12.047  32.257   4.519
 4672PAPS   D3A52019  12.278  31.860   4.603
 4672PAPS   D4A52020  12.690  31.609   4.421
 4672PAPS   C5A52021  12.964  31.318   4.235
 4672PAPS   C1B52022  11.745  33.055   4.478
 4672PAPS   C2B52023  11.753  33.293   4.929
 4672PAPS   C3B52024  11.641  33.477   5.257
 4672PAPS   C4B52025  11.352  33.392   5.601
 4673PAPS   CNO52026  30.336  23.661   2.833
 4673PAPS   PO452027  30.163  23.930   3.063
 4673PAPS   GL152028  30.240  23.844   3.465
 4673PAPS   GL252029  30.076  24.104   3.565
 4673PAPS   C1A52030  30.496  23.817   3.727
 4673PAPS   D2A52031  30.365  23.595   4.047
 4673PAPS   D3A52032  30.586  23.312   4.319
 4673PAPS   D4A52033  30.621  23.260   4.735
 4673PAPS   C5A52034  30.404  23.362   5.177
 4673PAPS   C1B52035  29.934  24.010   3.980
 4673PAPS   C2B52036  30.140  23.881   4.434
 4673PAPS   C3B52037  30.082  23.414   4.579
 4673PAPS   C4B52038  30.189  23.013   4.883
 4674PAPS   CNO52039  34.630  20.258   3.383
 4674PAPS   PO452040  34.847  20.120   3.652
 4674PAPS   GL152041  34.594  20.134   4.047
 4674PAPS   GL252042  34.819  19.987   4.142
 4674PAPS   C1A52043  34.375  20.005   4.287
 4674PAPS   D2A52044  34.359  19.690   4.523
 4674PAPS   D3A52045  34.451  19.865   4.952
 4674PAPS   D4A52046  34.428  19.503   5.197
 4674PAPS   C5A52047  34.674  19.613   5.573
 4674PAPS   C1B52048  35.034  19.843   4.491
 4674PAPS   C2B52049  35.054  19.678   4.971
 4674PAPS   C3B52050  35.312  19.361   5.280
 4674PAPS   C4B52051  35.706  19.124   5.467
 4675PAPS   CNO52052  24.331   4.488   2.747
 4675PAPS   PO452053  24.452   4.169   2.900
 4675PAPS   GL152054  24.302   4.063   3.267
 4675PAPS   GL252055  24.504   3.845   3.299
 4675PAPS   C1A52056  23.962   3.959   3.397
 4675PAPS   D2A52057  23.848   3.699   3.672
 4675PAPS   D3A52058  23.714   3.801   4.095
 4675PAPS   D4A52059  23.640   3.601   4.580
 4675PAPS   C5A52060  23.396   3.262   4.849
 4675PAPS   C1B52061  24.454   3.715   3.718
 4675PAPS   C2B52062  24.242   3.635   4.148
 4675PAPS   C3B52063  24.196   3.558   4.560
 4675PAPS   C4B52064  24.080   3.545   5.075
 4676PAPS   CNO52065  20.093  26.805   3.596
 4676PAPS   PO452066  20.047  27.199   3.605
 4676PAPS   GL152067  19.809  27.166   3.964
 4676PAPS   GL252068  20.017  27.289   4.149
 4676PAPS   C1A52069  19.647  26.993   4.210
 4676PAPS   D2A52070  19.703  26.723   4.554
 4676PAPS   D3A52071  19.696  26.285   4.462
 4676PAPS   D4A52072  20.011  26.437   4.774
 4676PAPS   C5A52073  19.846  26.838   5.034
 4676PAPS   C1B52074  20.120  27.134   4.478
 4676PAPS   C2B52075  20.321  26.875   4.839
 4676PAPS   C3B52076  20.493  26.738   5.272
 4676PAPS   C4B52077  20.474  26.636   5.745
 4677PAPS   CNO52078   6.064   7.235   3.393
 4677PAPS   PO452079   6.335   7.372   3.557
 4677PAPS   GL152080   6.341   7.438   3.922
 4677PAPS   GL252081   6.650   7.297   4.028
 4677PAPS   C1A52082   6.224   7.503   4.289
 4677PAPS   D2A52083   5.904   7.577   4.547
 4677PAPS   D3A52084   5.785   7.339   4.922
 4677PAPS   D4A52085   5.412   7.392   5.162
 4677PAPS   C5A52086   5.227   7.781   5.001
 4677PAPS   C1B52087   6.733   7.327   4.414
 4677PAPS   C2B52088   6.806   7.439   4.885
 4677PAPS   C3B52089   6.688   7.434   5.374
 4677PAPS   C4B52090   6.717   7.237   5.814
 4678PAPS   CNO52091  20.986  33.120   2.948
 4678PAPS   PO452092  20.968  33.047   3.295
 4678PAPS   GL152093  20.944  33.051   3.658
 4678PAPS   GL252094  20.663  32.882   3.712
 4678PAPS   C1A52095  21.138  33.167   3.967
 4678PAPS   D2A52096  21.043  33.089   4.337
 4678PAPS   D3A52097  21.152  33.566   4.324
 4678PAPS   D4A52098  21.081  33.676   4.821
 4678PAPS   C5A52099  21.289  33.794   5.276
 4678PAPS   C1B52100  20.674  33.103   4.062
 4678PAPS   C2B52101  20.607  33.269   4.549
 4678PAPS   C3B52102  20.586  33.534   4.944
 4678PAPS   C4B52103  20.734  33.688   5.335
 4679PAPS   CNO52104  16.460   0.438   3.070
 4679PAPS   PO452105  16.109   0.470   3.180
 4679PAPS   GL152106  16.138   0.567   3.640
 4679PAPS   GL252107  16.384   0.495   3.656
 4679PAPS   C1A52108  15.867   0.535   3.938
 4679PAPS   D2A52109  15.710   0.275   4.188
 4679PAPS   D3A52110  15.730   0.465   4.541
 4679PAPS   D4A52111  16.100   0.653   4.820
 4679PAPS   C5A52112  16.211   0.520   5.250
 4679PAPS   C1B52113  16.275   0.248   4.026
 4679PAPS   C2B52114  16.282   0.196   4.514
 4679PAPS   C3B52115  15.899   0.068   4.697
 4679PAPS   C4B52116  15.553   0.144   4.981
 4680PAPS   CNO52117   1.525  16.804   3.890
 4680PAPS   PO452118   1.405  17.112   3.683
 4680PAPS   GL152119   1.479  17.375   3.953
 4680PAPS   GL252120   1.379  17.497   4.099
 4680PAPS   C1A52121   1.777  17.547   3.999
 4680PAPS   D2A52122   2.082  17.704   3.857
 4680PAPS   D3A52123   2.228  18.120   4.024
 4680PAPS   D4A52124   2.405  18.360   4.329
 4680PAPS   C5A52125   2.335  18.571   4.730
 4680PAPS   C1B52126   1.719  17.408   4.375
 4680PAPS   C2B52127   1.957  17.320   4.757
 4680PAPS   C3B52128   1.959  17.483   5.250
 4680PAPS   C4B52129   1.823  17.527   5.698
 4681PAPS   CNO52130  12.505  23.153   2.839
 4681PAPS   PO452131  12.664  23.435   3.029
 4681PAPS   GL152132  12.776  23.340   3.459
 4681PAPS   GL252133  12.633  23.110   3.417
 4681PAPS   C1A52134  12.711  23.430   3.826
 4681PAPS   D2A52135  12.592  23.246   4.177
 4681PAPS   D3A52136  12.642  23.442   4.564
 4681PAPS   D4A52137  12.514  23.820   4.690
 4681PAPS   C5A52138  12.618  23.774   5.163
 4681PAPS   C1B52139  12.349  23.063   3.763
 4681PAPS   C2B52140  12.118  23.042   4.201
 4681PAPS   C3B52141  11.933  23.007   4.628
 4681PAPS   C4B52142  11.928  22.817   5.081
 4682PAPS   CNO52143   1.587   7.456   3.196
 4682PAPS   PO452144   1.969   7.520   3.136
 4682PAPS   GL152145   2.038   7.754   3.464
 4682PAPS   GL252146   1.747   7.741   3.610
 4682PAPS   C1A52147   2.209   7.493   3.638
 4682PAPS   D2A52148   2.191   7.172   3.843
 4682PAPS   D3A52149   2.201   7.310   4.274
 4682PAPS   D4A52150   2.305   7.243   4.705
 4682PAPS   C5A52151   2.252   6.972   5.128
 4682PAPS   C1B52152   1.639   7.949   3.954
 4682PAPS   C2B52153   1.561   7.923   4.436
 4682PAPS   C3B52154   1.550   7.968   4.913
 4682PAPS   C4B52155   1.539   8.104   5.350
 4683PAPS   CNO52156  26.992  16.556   3.086
 4683PAPS   PO452157  27.210  16.862   3.145
 4683PAPS   GL152158  27.439  17.034   3.554
 4683PAPS   GL252159  27.207  17.158   3.578
 4683PAPS   C1A52160  27.682  16.954   3.800
 4683PAPS   D2A52161  28.032  16.924   3.699
 4683PAPS   D3A52162  28.241  17.024   3.983
 4683PAPS   D4A52163  28.358  16.849   4.393
 4683PAPS   C5A52164  28.293  17.303   4.601
 4683PAPS   C1B52165  27.339  17.220   4.001
 4683PAPS   C2B52166  27.757  16.939   4.285
 4683PAPS   C3B52167  27.806  16.662   4.691
 4683PAPS   C4B52168  27.607  16.293   4.946
 4684PAPS   CNO52169   3.845  34.046   3.264
 4684PAPS   PO452170   3.684  33.733   3.432
 4684PAPS   GL152171   3.819  33.534   3.824
 4684PAPS   GL252172   3.609  33.769   3.954
 4684PAPS   C1A52173   4.128  33.463   4.083
 4684PAPS   D2A52174   4.495  33.396   4.111
 4684PAPS   D3A52175   4.913  33.299   4.212
 4684PAPS   D4A52176   5.232  33.288   4.560
 4684PAPS   C5A52177   5.378  32.889   4.629
 4684PAPS   C1B52178   3.526  33.795   4.431
 4684PAPS   C2B52179   3.624  33.797   4.918
 4684PAPS   C3B52180   3.783  33.634   5.332
 4684PAPS   C4B52181   3.807  33.221   5.618
 4685PAPS   CNO52182   2.294  30.275   2.952
 4685PAPS   PO452183   2.465  30.547   3.179
 4685PAPS   GL152184   2.463  30.484   3.652
 4685PAPS   GL252185   2.273  30.592   3.609
 4685PAPS   C1A52186   2.452  30.397   4.018
 4685PAPS   D2A52187   2.414  30.399   4.426
 4685PAPS   D3A52188   2.023  30.449   4.559
 4685PAPS   D4A52189   1.726  30.223   4.762
 4685PAPS   C5A52190   1.702  29.908   5.122
 4685PAPS   C1B52191   1.905  30.740   3.854
 4685PAPS   C2B52192   1.637  30.797   4.283
 4685PAPS   C3B52193   1.641  30.762   4.803
 4685PAPS   C4B52194   1.569  30.564   5.276
 4686PAPS   CNO52195  19.014  11.089   3.711
 4686PAPS   PO452196  19.361  11.225   3.817
 4686PAPS   GL152197  19.456  11.243   4.224
 4686PAPS   GL252198  19.134  11.243   4.307
 4686PAPS   C1A52199  19.681  11.139   4.479
 4686PAPS   D2A52200  19.636  11.102   4.896
 4686PAPS   D3A52201  19.536  10.826   5.245
 4686PAPS   D4A52202  19.110  10.915   5.226
 4686PAPS   C5A52203  18.657  11.062   5.397
 4686PAPS   C1B52204  19.158  11.352   4.815
 4686PAPS   C2B52205  19.528  11.554   5.102
 4686PAPS   C3B52206  19.613  11.863   5.441
 4686PAPS   C4B52207  19.891  12.142   5.812
 4687PAPS   CNO52208  28.112  31.585   2.914
 4687PAPS   PO452209  28.022  31.912   3.092
 4687PAPS   GL152210  28.112  32.322   3.104
 4687PAPS   GL252211  27.875  32.374   3.289
 4687PAPS   C1A52212  28.300  32.558   3.283
 4687PAPS   D2A52213  28.469  32.509   3.659
 4687PAPS   D3A52214  28.777  32.212   3.573
 4687PAPS   D4A52215  29.213  32.048   3.440
 4687PAPS   C5A52216  29.477  31.942   3.764
 4687PAPS   C1B52217  28.012  32.619   3.617
 4687PAPS   C2B52218  28.167  32.586   4.133
 4687PAPS   C3B52219  28.117  32.698   4.590
 4687PAPS   C4B52220  28.158  32.582   5.113
 4688PAPS   CNO52221  31.219  20.587   3.085
 4688PAPS   PO452222  31.178  20.852   3.349
 4688PAPS   GL152223  30.911  20.929   3.695
 4688PAPS   GL252224  30.982  20.761   3.852
 4688PAPS   C1A52225  30.907  21.261   3.805
 4688PAPS   D2A52226  30.818  21.565   4.034
 4688PAPS   D3A52227  30.603  21.927   3.904
 4688PAPS   D4A52228  30.692  22.309   4.056
 4688PAPS   C5A52229  30.682  22.761   3.886
 4688PAPS   C1B52230  30.748  20.527   4.030
 4688PAPS   C2B52231  30.452  20.401   4.401
 4688PAPS   C3B52232  29.980  20.493   4.597
 4688PAPS   C4B52233  29.554  20.676   4.729
 4689PAPS   CNO52234   0.146   5.298   3.331
 4689PAPS   PO452235   0.102   5.701   3.354
 4689PAPS   GL152236  -0.069   5.726   3.717
 4689PAPS   GL252237  -0.033   5.446   3.697
 4689PAPS   C1A52238  -0.047   5.881   4.051
 4689PAPS   D2A52239   0.051   5.934   4.414
 4689PAPS   D3A52240  -0.159   5.859   4.791
 4689PAPS   D4A52241  -0.553   5.786   5.029
 4689PAPS   C5A52242  -0.870   6.002   5.320
 4689PAPS   C1B52243   0.070   5.298   4.118
 4689PAPS   C2B52244   0.099   4.907   4.480
 4689PAPS   C3B52245   0.290   4.692   4.872
 4689PAPS   C4B52246   0.262   4.754   5.385
 4690PAPS   CNO52247  24.686  12.139   3.311
 4690PAPS   PO452248  24.513  12.032   3.646
 4690PAPS   GL152249  24.714  12.115   4.052
 4690PAPS   GL252250  24.514  12.036   4.140
 4690PAPS   C1A52251  24.999  11.902   4.222
 4690PAPS   D2A52252  25.244  11.606   4.162
 4690PAPS   D3A52253  25.646  11.648   3.989
 4690PAPS   D4A52254  25.870  11.990   4.219
 4690PAPS   C5A52255  26.146  12.269   3.964
 4690PAPS   C1B52256  24.522  12.191   4.566
 4690PAPS   C2B52257  24.817  12.466   4.907
 4690PAPS   C3B52258  25.348  12.563   5.069
 4690PAPS   C4B52259  25.819  12.588   5.004
 4691PAPS   CNO52260   6.551  32.227   2.750
 4691PAPS   PO452261   6.562  32.254   3.116
 4691PAPS   GL152262   6.625  32.055   3.545
 4691PAPS   GL252263   6.668  32.374   3.564
 4691PAPS   C1A52264   6.816  31.996   3.890
 4691PAPS   D2A52265   7.038  31.805   4.186
 4691PAPS   D3A52266   7.308  31.785   4.518
 4691PAPS   D4A52267   7.534  32.105   4.725
 4691PAPS   C5A52268   7.740  32.531   4.838
 4691PAPS   C1B52269   6.611  32.305   4.080
 4691PAPS   C2B52270   6.623  32.004   4.483
 4691PAPS   C3B52271   6.459  31.980   5.003
 4691PAPS   C4B52272   6.042  31.738   5.165
 4692PAPS   CNO52273  22.459  14.452   3.392
 4692PAPS   PO452274  22.517  14.516   3.754
 4692PAPS   GL152275  22.762  14.587   4.074
 4692PAPS   GL252276  22.785  14.333   4.155
 4692PAPS   C1A52277  22.672  14.852   4.226
 4692PAPS   D2A52278  22.444  15.053   3.993
 4692PAPS   D3A52279  22.251  14.854   4.369
 4692PAPS   D4A52280  22.077  14.803   4.807
 4692PAPS   C5A52281  22.359  14.713   5.187
 4692PAPS   C1B52282  22.883  14.303   4.625
 4692PAPS   C2B52283  22.955  14.141   5.040
 4692PAPS   C3B52284  22.648  14.352   5.395
 4692PAPS   C4B52285  22.947  14.413   5.761
 4693PAPS   CNO52286  19.695  22.735   3.515
 4693PAPS   PO452287  19.677  22.417   3.744
 4693PAPS   GL152288  19.493  22.246   4.004
 4693PAPS   GL252289  19.749  22.111   4.050
 4693PAPS   C1A52290  19.379  22.538   4.271
 4693PAPS   D2A52291  19.490  22.734   4.559
 4693PAPS   D3A52292  19.346  22.786   4.954
 4693PAPS   D4A52293  19.330  22.385   5.192
 4693PAPS   C5A52294  19.105  22.046   5.444
 4693PAPS   C1B52295  19.874  21.947   4.501
 4693PAPS   C2B52296  20.099  21.930   4.966
 4693PAPS   C3B52297  20.430  21.791   5.232
 4693PAPS   C4B52298  20.776  21.626   5.433
 4694PAPS   CNO52299  17.614  19.914   3.365
 4694PAPS   PO452300  17.698  20.025   3.727
 4694PAPS   GL152301  17.803  19.994   4.188
 4694PAPS   GL252302  17.769  19.767   4.229
 4694PAPS   C1A52303  17.672  20.192   4.480
 4694PAPS   D2A52304  17.601  20.208   4.901
 4694PAPS   D3A52305  17.625  20.312   5.315
 4694PAPS   D4A52306  17.713  20.166   5.779
 4694PAPS   C5A52307  18.047  20.417   6.075
 4694PAPS   C1B52308  17.707  19.725   4.686
 4694PAPS   C2B52309  17.776  19.849   5.176
 4694PAPS   C3B52310  18.015  19.711   5.539
 4694PAPS   C4B52311  18.385  19.954   5.794
 4695PAPS   CNO52312  35.081  23.575   3.974
 4695PAPS   PO452313  35.299  23.229   4.026
 4695PAPS   GL152314  35.592  23.277   4.334
 4695PAPS   GL252315  35.564  23.509   4.360
 4695PAPS   C1A52316  35.684  23.098   4.665
 4695PAPS   D2A52317  35.685  22.677   4.832
 4695PAPS   D3A52318  36.080  22.641   4.784
 4695PAPS   D4A52319  35.975  22.471   5.240
 4695PAPS   C5A52320  35.676  22.547   5.615
 4695PAPS   C1B52321  35.680  23.725   4.764
 4695PAPS   C2B52322  35.818  23.853   5.237
 4695PAPS   C3B52323  35.999  24.180   5.511
 4695PAPS   C4B52324  36.466  24.380   5.603
 4696PAPS   CNO52325   6.337  18.991   2.678
 4696PAPS   PO452326   6.654  19.054   2.906
 4696PAPS   GL152327   6.697  19.038   3.284
 4696PAPS   GL252328   6.960  19.082   3.266
 4696PAPS   C1A52329   6.598  19.053   3.694
 4696PAPS   D2A52330   6.750  19.033   4.076
 4696PAPS   D3A52331   6.679  18.736   4.379
 4696PAPS   D4A52332   6.362  18.677   4.067
 4696PAPS   C5A52333   6.673  18.606   3.742
 4696PAPS   C1B52334   7.134  18.809   3.565
 4696PAPS   C2B52335   7.128  18.609   4.052
 4696PAPS   C3B52336   7.005  18.429   4.450
 4696PAPS   C4B52337   6.845  18.662   4.843
 4697PAPS   CNO52338  30.302  14.982   3.232
 4697PAPS   PO452339  30.487  14.711   3.467
 4697PAPS   GL152340  30.467  14.845   3.869
 4697PAPS   GL252341  30.190  14.937   3.896
 4697PAPS   C1A52342  30.570  14.767   4.270
 4697PAPS   D2A52343  30.684  14.521   4.558
 4697PAPS   D3A52344  30.926  14.753   4.859
 4697PAPS   D4A52345  31.309  14.699   4.801
 4697PAPS   C5A52346  31.411  14.482   4.406
 4697PAPS   C1B52347  30.194  15.017   4.347
 4697PAPS   C2B52348  30.125  14.999   4.896
 4697PAPS   C3B52349  30.220  14.801   5.347
 4697PAPS   C4B52350  30.279  14.372   5.593
 4698PAPS   CNO52351   4.602   0.939   2.877
 4698PAPS   PO452352   4.790   0.969   3.217
 4698PAPS   GL152353   4.832   1.217   3.592
 4698PAPS   GL252354   4.566   1.241   3.540
 4698PAPS   C1A52355   5.032   1.382   3.890
 4698PAPS   D2A52356   4.865   1.715   3.831
 4698PAPS   D3A52357   4.495   1.867   3.608
 4698PAPS   D4A52358   4.239   1.945   3.963
 4698PAPS   C5A52359   4.163   1.870   4.399
 4698PAPS   C1B52360   4.457   1.345   3.883
 4698PAPS   C2B52361   4.619   1.669   4.255
 4698PAPS   C3B52362   4.778   1.890   4.629
 4698PAPS   C4B52363   4.685   2.046   5.108
 4699PAPS   CNO52364   0.158   0.141   2.813
 4699PAPS   PO452365   0.029   0.219   3.177
 4699PAPS   GL152366   0.256   0.234   3.574
 4699PAPS   GL252367  -0.084   0.252   3.677
 4699PAPS   C1A52368   0.236   0.112   3.945
 4699PAPS   D2A52369   0.243   0.139   4.313
 4699PAPS   D3A52370   0.208   0.241   4.766
 4699PAPS   D4A52371   0.003   0.296   5.172
 4699PAPS   C5A52372  -0.369   0.382   5.494
 4699PAPS   C1B52373  -0.179   0.244   4.066
 4699PAPS   C2B52374  -0.328  -0.057   4.443
 4699PAPS   C3B52375  -0.113  -0.162   4.912
 4699PAPS   C4B52376   0.131  -0.589   5.015
 4700PAPS   CNO52377  22.731   1.399   2.605
 4700PAPS   PO452378  22.583   1.613   2.858
 4700PAPS   GL152379  22.617   1.524   3.339
 4700PAPS   GL252380  22.801   1.338   3.315
 4700PAPS   C1A52381  22.380   1.547   3.611
 4700PAPS   D2A52382  22.440   1.698   3.973
 4700PAPS   D3A52383  22.365   1.449   4.314
 4700PAPS   D4A52384  22.035   1.365   4.583
 4700PAPS   C5A52385  21.914   1.688   4.953
 4700PAPS   C1B52386  22.919   1.190   3.717
 4700PAPS   C2B52387  23.035   0.882   4.085
 4700PAPS   C3B52388  22.900   0.559   4.421
 4700PAPS   C4B52389  22.775   0.326   4.831
 4701PAPS   CNO52390  23.659  35.902   2.831
 4701PAPS   PO452391  23.391  35.741   3.071
 4701PAPS   GL152392  23.272  35.920   3.444
 4701PAPS   GL252393  23.084  35.760   3.363
 4701PAPS   C1A52394  23.425  35.657   3.620
 4701PAPS   D2A52395  23.749  35.485   3.696
 4701PAPS   D3A52396  23.948  35.123   3.734
 4701PAPS   D4A52397  23.711  35.140   4.085
 4701PAPS   C5A52398  23.539  35.146   4.534
 4701PAPS   C1B52399  22.973  35.603   3.816
 4701PAPS   C2B52400  22.918  35.420   4.305
 4701PAPS   C3B52401  22.771  35.306   4.786
 4701PAPS   C4B52402  22.704  35.089   5.198
 4702PAPS   CNO52403   6.416   8.627   3.144
 4702PAPS   PO452404   6.238   8.894   3.265
 4702PAPS   GL152405   6.232   8.791   3.674
 4702PAPS   GL252406   6.369   9.068   3.746
 4702PAPS   C1A52407   6.362   8.715   3.966
 4702PAPS   D2A52408   6.597   8.594   4.234
 4702PAPS   D3A52409   6.530   8.856   4.562
 4702PAPS   D4A52410   6.873   9.126   4.721
 4702PAPS   C5A52411   7.083   9.426   5.020
 4702PAPS   C1B52412   6.292   9.166   4.121
 4702PAPS   C2B52413   6.430   9.381   4.559
 4702PAPS   C3B52414   6.564   9.531   4.952
 4702PAPS   C4B52415   6.657   9.686   5.415
 4703PAPS   CNO52416  33.519   4.293   3.565
 4703PAPS   PO452417  33.203   4.220   3.297
 4703PAPS   GL152418  33.145   4.501   3.545
 4703PAPS   GL252419  33.383   4.699   3.621
 4703PAPS   C1A52420  33.096   4.352   3.858
 4703PAPS   D2A52421  32.899   3.975   3.965
 4703PAPS   D3A52422  32.825   4.280   4.307
 4703PAPS   D4A52423  32.963   4.513   4.628
 4703PAPS   C5A52424  32.874   4.066   4.887
 4703PAPS   C1B52425  33.618   4.649   4.057
 4703PAPS   C2B52426  33.894   4.535   4.474
 4703PAPS   C3B52427  34.309   4.708   4.608
 4703PAPS   C4B52428  34.670   5.034   4.732
 4704PAPS   CNO52429  20.903  12.756   3.414
 4704PAPS   PO452430  20.615  12.729   3.607
 4704PAPS   GL152431  20.600  12.540   3.948
 4704PAPS   GL252432  20.295  12.482   4.035
 4704PAPS   C1A52433  20.823  12.630   4.252
 4704PAPS   D2A52434  20.906  12.950   4.454
 4704PAPS   D3A52435  21.170  12.865   4.808
 4704PAPS   D4A52436  21.515  13.114   5.021
 4704PAPS   C5A52437  21.342  13.231   5.445
 4704PAPS   C1B52438  20.084  12.221   4.259
 4704PAPS   C2B52439  19.994  11.921   4.687
 4704PAPS   C3B52440  20.262  11.848   5.107
 4704PAPS   C4B52441  20.493  11.520   5.352
 4705PAPS   CNO52442   8.066  25.599   2.875
 4705PAPS   PO452443   8.445  25.493   2.895
 4705PAPS   GL152444   8.668  25.557   3.280
 4705PAPS   GL252445   8.678  25.811   3.298
 4705PAPS   C1A52446   8.913  25.407   3.532
 4705PAPS   D2A52447   8.837  25.375   3.915
 4705PAPS   D3A52448   8.994  25.639   4.226
 4705PAPS   D4A52449   9.175  26.042   4.090
 4705PAPS   C5A52450   8.981  26.436   4.439
 4705PAPS   C1B52451   8.713  26.002   3.667
 4705PAPS   C2B52452   8.418  26.239   4.009
 4705PAPS   C3B52453   8.347  26.490   4.350
 4705PAPS   C4B52454   7.937  26.447   4.611
 4706PAPS   CNO52455   4.103  22.428   3.343
 4706PAPS   PO452456   4.237  22.625   3.614
 4706PAPS   GL152457   4.271  22.493   3.993
 4706PAPS   GL252458   4.391  22.796   4.062
 4706PAPS   C1A52459   4.336  22.283   4.322
 4706PAPS   D2A52460   4.613  22.165   4.526
 4706PAPS   D3A52461   4.588  22.483   4.818
 4706PAPS   D4A52462   4.223  22.844   4.858
 4706PAPS   C5A52463   4.036  22.636   4.436
 4706PAPS   C1B52464   4.567  22.852   4.497
 4706PAPS   C2B52465   5.011  22.751   4.855
 4706PAPS   C3B52466   5.379  22.535   5.035
 4706PAPS   C4B52467   5.512  22.169   5.411
 4707PAPS   CNO52468   1.450  34.538   3.219
 4707PAPS   PO452469   1.697  34.616   3.490
 4707PAPS   GL152470   1.684  34.916   3.868
 4707PAPS   GL252471   1.566  34.626   3.965
 4707PAPS   C1A52472   1.878  35.063   4.143
 4707PAPS   D2A52473   1.793  35.380   4.377
 4707PAPS   D3A52474   1.581  35.808   4.398
 4707PAPS   D4A52475   1.761  36.153   4.515
 4707PAPS   C5A52476   1.906  36.315   4.966
 4707PAPS   C1B52477   1.812  34.400   4.204
 4707PAPS   C2B52478   1.965  34.435   4.754
 4707PAPS   C3B52479   2.170  34.388   5.193
 4707PAPS   C4B52480   2.162  34.028   5.608
 4708PAPS   CNO52481  34.822  11.452   2.590
 4708PAPS   PO452482  34.810  11.224   2.914
 4708PAPS   GL152483  34.631  11.237   3.311
 4708PAPS   GL252484  34.704  11.516   3.305
 4708PAPS   C1A52485  34.583  11.287   3.699
 4708PAPS   D2A52486  34.201  11.511   3.781
 4708PAPS   D3A52487  34.077  11.321   4.159
 4708PAPS   D4A52488  33.948  11.309   4.595
 4708PAPS   C5A52489  33.875  11.494   5.042
 4708PAPS   C1B52490  34.676  11.757   3.645
 4708PAPS   C2B52491  34.535  11.617   4.093
 4708PAPS   C3B52492  34.445  11.384   4.474
 4708PAPS   C4B52493  34.346  11.404   4.974
 4709PAPS   CNO52494  10.420   1.857   2.855
 4709PAPS   PO452495  10.427   2.233   2.797
 4709PAPS   GL152496  10.291   2.429   3.235
 4709PAPS   GL252497  10.485   2.189   3.312
 4709PAPS   C1A52498  10.039   2.530   3.510
 4709PAPS   D2A52499   9.990   2.743   3.841
 4709PAPS   D3A52500  10.081   2.630   4.274
 4709PAPS   D4A52501  10.387   2.471   4.518
 4709PAPS   C5A52502  10.622   2.823   4.642
 4709PAPS   C1B52503  10.525   2.028   3.721
 4709PAPS   C2B52504  10.516   1.933   4.211
 4709PAPS   C3B52505  10.411   1.930   4.674
 4709PAPS   C4B52506   9.994   1.673   4.922
 4710PAPS   CNO52507   5.991   5.051   2.782
 4710PAPS   PO452508   5.999   5.313   3.079
 4710PAPS   GL152509   5.947   5.261   3.445
 4710PAPS   GL252510   5.775   5.530   3.460
 4710PAPS   C1A52511   5.807   5.023   3.694
 4710PAPS   D2A52512   5.750   5.004   4.070
 4710PAPS   D3A52513   6.095   4.772   4.360
 4710PAPS   D4A52514   6.471   4.597   4.584
 4710PAPS   C5A52515   6.731   4.975   4.735
 4710PAPS   C1B52516   5.897   5.442   3.887
 4710PAPS   C2B52517   5.901   5.337   4.453
 4710PAPS   C3B52518   5.791   5.313   4.950
 4710PAPS   C4B52519   5.638   5.169   5.362
 4711PAPS   CNO52520  27.616  17.950   2.530
 4711PAPS   PO452521  27.700  18.047   2.900
 4711PAPS   GL152522  27.575  18.063   3.282
 4711PAPS   GL252523  27.747  17.845   3.377
 4711PAPS   C1A52524  27.479  18.262   3.583
 4711PAPS   D2A52525  27.116  18.116   3.763
 4711PAPS   D3A52526  26.792  18.289   3.863
 4711PAPS   D4A52527  26.633  18.588   4.106
 4711PAPS   C5A52528  26.558  18.831   4.528
 4711PAPS   C1B52529  27.879  17.781   3.780
 4711PAPS   C2B52530  27.892  17.981   4.273
 4711PAPS   C3B52531  27.911  18.164   4.778
 4711PAPS   C4B52532  28.201  18.068   5.157
 4712PAPS   CNO52533   9.174   1.119   2.459
 4712PAPS   PO452534   9.322   0.800   2.617
 4712PAPS   GL152535   9.311   0.751   3.044
 4712PAPS   GL252536   9.529   0.614   3.071
 4712PAPS   C1A52537   9.276   1.020   3.293
 4712PAPS   D2A52538   9.385   1.341   3.485
 4712PAPS   D3A52539   9.335   1.422   3.887
 4712PAPS   D4A52540   9.322   1.554   4.348
 4712PAPS   C5A52541   9.653   1.389   4.564
 4712PAPS   C1B52542   9.670   0.518   3.460
 4712PAPS   C2B52543   9.833   0.359   3.983
 4712PAPS   C3B52544   9.792   0.424   4.437
 4712PAPS   C4B52545   9.687   0.473   4.874
 4713PAPS   CNO52546  13.519  24.258   3.731
 4713PAPS   PO452547  13.298  24.047   3.508
 4713PAPS   GL152548  12.871  24.113   3.692
 4713PAPS   GL252549  12.977  23.794   3.740
 4713PAPS   C1A52550  12.576  24.213   3.918
 4713PAPS   D2A52551  12.448  24.552   4.059
 4713PAPS   D3A52552  12.248  24.512   4.381
 4713PAPS   D4A52553  12.386  24.386   4.759
 4713PAPS   C5A52554  12.224  24.266   5.186
 4713PAPS   C1B52555  13.169  23.717   4.139
 4713PAPS   C2B52556  13.490  23.815   4.504
 4713PAPS   C3B52557  13.820  23.781   4.876
 4713PAPS   C4B52558  14.126  23.958   5.277
 4714PAPS   CNO52559   3.509  29.719   3.122
 4714PAPS   PO452560   3.360  29.641   3.445
 4714PAPS   GL152561   3.334  29.746   3.755
 4714PAPS   GL252562   3.199  29.990   3.836
 4714PAPS   C1A52563   3.400  29.606   4.066
 4714PAPS   D2A52564   3.477  29.622   4.472
 4714PAPS   D3A52565   3.633  29.633   4.873
 4714PAPS   D4A52566   4.090  29.511   5.009
 4714PAPS   C5A52567   4.408  29.602   5.357
 4714PAPS   C1B52568   3.401  30.166   4.173
 4714PAPS   C2B52569   3.417  30.111   4.719
 4714PAPS   C3B52570   3.465  30.164   5.163
 4714PAPS   C4B52571   3.237  30.394   5.483
 4715PAPS   CNO52572  16.178   5.625   3.533
 4715PAPS   PO452573  16.257   5.917   3.783
 4715PAPS   GL152574  16.503   5.841   4.146
 4715PAPS   GL252575  16.244   5.995   4.285
 4715PAPS   C1A52576  16.852   5.922   4.171
 4715PAPS   D2A52577  17.105   6.197   4.126
 4715PAPS   D3A52578  17.061   6.662   4.197
 4715PAPS   D4A52579  17.171   6.939   4.571
 4715PAPS   C5A52580  17.023   7.369   4.359
 4715PAPS   C1B52581  16.205   6.001   4.734
 4715PAPS   C2B52582  16.330   6.057   5.228
 4715PAPS   C3B52583  16.639   5.924   5.509
 4715PAPS   C4B52584  17.053   5.780   5.737
 4716PAPS   CNO52585  24.753   7.797   3.366
 4716PAPS   PO452586  24.820   7.406   3.555
 4716PAPS   GL152587  24.813   7.512   3.968
 4716PAPS   GL252588  24.707   7.186   4.014
 4716PAPS   C1A52589  24.853   7.708   4.270
 4716PAPS   D2A52590  24.823   7.491   4.530
 4716PAPS   D3A52591  25.004   7.665   4.951
 4716PAPS   D4A52592  25.113   7.514   5.393
 4716PAPS   C5A52593  25.234   7.141   5.148
 4716PAPS   C1B52594  24.796   7.064   4.380
 4716PAPS   C2B52595  24.804   7.146   4.875
 4716PAPS   C3B52596  24.650   7.357   5.263
 4716PAPS   C4B52597  24.236   7.499   5.496
 4717PAPS   CNO52598  32.735  15.607   2.836
 4717PAPS   PO452599  32.527  15.418   3.131
 4717PAPS   GL152600  32.755  15.338   3.484
 4717PAPS   GL252601  32.783  15.045   3.528
 4717PAPS   C1A52602  32.741  15.490   3.809
 4717PAPS   D2A52603  32.777  15.804   4.104
 4717PAPS   D3A52604  32.593  16.076   4.423
 4717PAPS   D4A52605  32.684  16.324   4.805
 4717PAPS   C5A52606  32.679  16.149   5.224
 4717PAPS   C1B52607  32.796  15.004   3.966
 4717PAPS   C2B52608  32.796  15.032   4.421
 4717PAPS   C3B52609  32.848  14.897   4.880
 4717PAPS   C4B52610  32.868  14.762   5.394
 4718PAPS   CNO52611   0.959  11.046   3.329
 4718PAPS   PO452612   1.168  11.083   3.660
 4718PAPS   GL152613   0.967  11.120   4.052
 4718PAPS   GL252614   1.065  10.845   4.040
 4718PAPS   C1A52615   0.920  11.055   4.428
 4718PAPS   D2A52616   0.877  10.841   4.710
 4718PAPS   D3A52617   1.039  10.471   4.907
 4718PAPS   D4A52618   1.302  10.204   4.665
 4718PAPS   C5A52619   1.679  10.436   4.729
 4718PAPS   C1B52620   0.701  10.525   4.305
 4718PAPS   C2B52621   0.638  10.216   4.689
 4718PAPS   C3B52622   0.731  10.224   5.218
 4718PAPS   C4B52623   0.942  10.229   5.703
 4719PAPS   CNO52624  12.145  33.331   3.470
 4719PAPS   PO452625  11.789  33.513   3.502
 4719PAPS   GL152626  11.646  33.611   3.806
 4719PAPS   GL252627  11.659  33.370   3.965
 4719PAPS   C1A52628  11.307  33.621   3.951
 4719PAPS   D2A52629  11.049  33.710   4.282
 4719PAPS   D3A52630  10.765  33.619   4.653
 4719PAPS   D4A52631  10.540  33.657   5.045
 4719PAPS   C5A52632  10.911  33.515   5.285
 4719PAPS   C1B52633  11.467  33.490   4.362
 4719PAPS   C2B52634  11.294  33.572   4.883
 4719PAPS   C3B52635  11.272  33.869   5.251
 4719PAPS   C4B52636  11.350  34.101   5.674
 4720PAPS   CNO52637  14.104  16.506   3.213
 4720PAPS   PO452638  13.893  16.727   3.419
 4720PAPS   GL152639  13.808  16.683   3.893
 4720PAPS   GL252640  13.800  16.968   3.821
 4720PAPS   C1A52641  13.548  16.535   4.115
 4720PAPS   D2A52642  13.200  16.302   4.287
 4720PAPS   D3A52643  13.174  16.194   4.753
 4720PAPS   D4A52644  13.432  16.447   5.058
 4720PAPS   C5A52645  13.474  16.924   5.010
 4720PAPS   C1B52646  13.938  16.943   4.242
 4720PAPS   C2B52647  14.116  16.898   4.679
 4720PAPS   C3B52648  14.094  16.775   5.067
 4720PAPS   C4B52649  13.923  16.454   5.352
 4721PAPS   CNO52650  13.297  31.897   3.547
 4721PAPS   PO452651  13.222  31.688   3.815
 4721PAPS   GL152652  12.911  31.859   4.108
 4721PAPS   GL252653  12.646  31.732   3.959
 4721PAPS   C1A52654  13.066  31.845   4.472
 4721PAPS   D2A52655  12.998  31.676   4.801
 4721PAPS   D3A52656  12.596  31.476   4.934
 4721PAPS   D4A52657  12.239  31.776   5.097
 4721PAPS   C5A52658  12.041  31.877   5.534
 4721PAPS   C1B52659  12.192  31.797   4.088
 4721PAPS   C2B52660  11.813  31.929   4.327
 4721PAPS   C3B52661  11.623  31.930   4.794
 4721PAPS   C4B52662  11.399  31.823   5.217
 4722PAPS   CNO52663  34.990  18.923   3.455
 4722PAPS   PO452664  35.147  19.016   3.801
 4722PAPS   GL152665  34.918  19.232   4.098
 4722PAPS   GL252666  35.123  19.464   4.145
 4722PAPS   C1A52667  34.752  19.256   4.375
 4722PAPS   D2A52668  34.627  19.265   4.758
 4722PAPS   D3A52669  34.827  19.261   5.164
 4722PAPS   D4A52670  34.844  19.051   5.602
 4722PAPS   C5A52671  34.711  18.709   5.960
 4722PAPS   C1B52672  35.182  19.386   4.578
 4722PAPS   C2B52673  35.595  19.363   4.850
 4722PAPS   C3B52674  36.002  19.358   5.147
 4722PAPS   C4B52675  36.099  19.418   5.602
 4723PAPS   CNO52676  30.603  26.455   3.496
 4723PAPS   PO452677  30.582  26.831   3.576
 4723PAPS   GL152678  30.676  26.838   3.961
 4723PAPS   GL252679  30.792  26.546   4.048
 4723PAPS   C1A52680  30.989  27.021   4.032
 4723PAPS   D2A52681  31.063  27.414   4.053
 4723PAPS   D3A52682  31.308  27.699   4.220
 4723PAPS   D4A52683  31.626  27.944   4.520
 4723PAPS   C5A52684  31.883  28.211   4.782
 4723PAPS   C1B52685  30.649  26.265   4.361
 4723PAPS   C2B52686  30.414  26.011   4.701
 4723PAPS   C3B52687  30.175  25.619   4.890
 4723PAPS   C4B52688  29.896  25.274   5.015
 4724PAPS   CNO52689  33.746   7.286   2.762
 4724PAPS   PO452690  33.829   7.250   3.101
 4724PAPS   GL152691  34.001   7.496   3.334
 4724PAPS   GL252692  33.829   7.640   3.523
 4724PAPS   C1A52693  34.254   7.484   3.625
 4724PAPS   D2A52694  34.390   7.356   3.988
 4724PAPS   D3A52695  34.409   7.186   4.419
 4724PAPS   D4A52696  34.337   7.031   4.816
 4724PAPS   C5A52697  33.896   6.907   5.105
 4724PAPS   C1B52698  33.865   7.661   3.989
 4724PAPS   C2B52699  34.083   7.540   4.425
 4724PAPS   C3B52700  34.002   7.365   4.895
 4724PAPS   C4B52701  34.172   7.418   5.324
 4725PAPS   CNO52702  18.401  27.312   3.056
 4725PAPS   PO452703  18.178  27.396   3.332
 4725PAPS   GL152704  18.366  27.522   3.767
 4725PAPS   GL252705  18.162  27.314   3.850
 4725PAPS   C1A52706  18.452  27.623   4.119
 4725PAPS   D2A52707  18.384  27.864   4.453
 4725PAPS   D3A52708  18.384  28.299   4.537
 4725PAPS   D4A52709  17.947  28.249   4.748
 4725PAPS   C5A52710  17.848  28.406   5.201
 4725PAPS   C1B52711  18.256  27.244   4.337
 4725PAPS   C2B52712  18.645  27.444   4.537
 4725PAPS   C3B52713  18.961  27.359   4.856
 4725PAPS   C4B52714  19.377  27.508   4.950
 4726PAPS   CNO52715   4.696  13.330   3.943
 4726PAPS   PO452716   5.029  13.177   3.917
 4726PAPS   GL152717   4.992  13.179   4.348
 4726PAPS   GL252718   5.069  13.382   4.394
 4726PAPS   C1A52719   4.998  12.962   4.656
 4726PAPS   D2A52720   5.146  12.999   5.019
 4726PAPS   D3A52721   5.229  13.381   5.245
 4726PAPS   D4A52722   5.438  13.573   5.554
 4726PAPS   C5A52723   5.667  13.289   5.828
 4726PAPS   C1B52724   5.442  13.621   4.322
 4726PAPS   C2B52725   5.824  13.730   4.773
 4726PAPS   C3B52726   6.130  13.864   5.192
 4726PAPS   C4B52727   6.485  13.712   5.543
 4727PAPS   CNO52728  18.669   9.488   3.353
 4727PAPS   PO452729  18.372   9.381   3.560
 4727PAPS   GL152730  18.389   9.550   3.948
 4727PAPS   GL252731  18.103   9.534   4.030
 4727PAPS   C1A52732  18.552   9.617   4.224
 4727PAPS   D2A52733  18.886   9.760   4.390
 4727PAPS   D3A52734  18.840   9.723   4.803
 4727PAPS   D4A52735  19.267   9.776   4.946
 4727PAPS   C5A52736  19.681   9.774   4.704
 4727PAPS   C1B52737  18.051   9.464   4.461
 4727PAPS   C2B52738  18.101   9.433   4.974
 4727PAPS   C3B52739  18.151   9.118   5.325
 4727PAPS   C4B52740  18.235   8.773   5.733
 4728PAPS   CNO52741  14.430  24.144   3.411
 4728PAPS   PO452742  14.778  24.230   3.427
 4728PAPS   GL152743  14.673  24.267   3.806
 4728PAPS   GL252744  14.904  24.321   3.903
 4728PAPS   C1A52745  14.336  24.362   3.910
 4728PAPS   D2A52746  14.066  24.613   4.029
 4728PAPS   D3A52747  13.920  24.727   4.485
 4728PAPS   D4A52748  13.748  24.773   4.878
 4728PAPS   C5A52749  13.351  24.775   4.559
 4728PAPS   C1B52750  14.868  24.186   4.304
 4728PAPS   C2B52751  14.867  24.145   4.795
 4728PAPS   C3B52752  15.141  24.081   5.184
 4728PAPS   C4B52753  15.462  23.813   5.500
 4729PAPS   CNO52754   3.753  24.942   3.944
 4729PAPS   PO452755   3.518  25.267   3.879
 4729PAPS   GL152756   3.157  25.224   4.168
 4729PAPS   GL252757   3.351  25.109   4.251
 4729PAPS   C1A52758   2.913  25.267   4.371
 4729PAPS   D2A52759   2.507  25.455   4.438
 4729PAPS   D3A52760   2.738  25.355   4.797
 4729PAPS   D4A52761   3.095  25.254   5.038
 4729PAPS   C5A52762   3.412  25.210   5.426
 4729PAPS   C1B52763   3.604  25.320   4.518
 4729PAPS   C2B52764   3.779  25.334   5.006
 4729PAPS   C3B52765   3.939  25.248   5.422
 4729PAPS   C4B52766   4.163  25.226   5.862
 4730PAPS   CNO52767  34.526  16.916   3.544
 4730PAPS   PO452768  34.613  17.213   3.740
 4730PAPS   GL152769  34.748  17.239   4.087
 4730PAPS   GL252770  35.004  17.409   4.080
 4730PAPS   C1A52771  34.678  17.259   4.432
 4730PAPS   D2A52772  34.724  17.282   4.843
 4730PAPS   D3A52773  34.698  17.518   5.239
 4730PAPS   D4A52774  34.370  17.675   5.520
 4730PAPS   C5A52775  34.095  17.881   5.885
 4730PAPS   C1B52776  35.092  17.506   4.530
 4730PAPS   C2B52777  35.271  17.443   5.009
 4730PAPS   C3B52778  35.165  17.446   5.496
 4730PAPS   C4B52779  34.739  17.370   5.785
 4731PAPS   CNO52780  19.675  31.361   3.438
 4731PAPS   PO452781  20.014  31.252   3.589
 4731PAPS   GL152782  20.140  31.353   4.017
 4731PAPS   GL252783  20.060  31.107   4.130
 4731PAPS   C1A52784  20.229  31.511   4.321
 4731PAPS   D2A52785  20.423  31.375   4.644
 4731PAPS   D3A52786  20.823  31.211   4.867
 4731PAPS   D4A52787  21.153  31.410   5.150
 4731PAPS   C5A52788  21.426  31.346   5.532
 4731PAPS   C1B52789  19.689  30.992   4.322
 4731PAPS   C2B52790  19.169  31.005   4.366
 4731PAPS   C3B52791  18.742  31.151   4.467
 4731PAPS   C4B52792  18.361  31.268   4.782
 4732PAPS   CNO52793  19.561  23.915   3.239
 4732PAPS   PO452794  19.657  23.595   3.428
 4732PAPS   GL152795  19.622  23.700   3.802
 4732PAPS   GL252796  19.926  23.780   3.857
 4732PAPS   C1A52797  19.538  23.496   4.124
 4732PAPS   D2A52798  19.598  23.248   4.400
 4732PAPS   D3A52799  19.924  22.982   4.493
 4732PAPS   D4A52800  19.836  22.793   4.917
 4732PAPS   C5A52801  19.780  22.783   5.403
 4732PAPS   C1B52802  20.168  23.693   4.126
 4732PAPS   C2B52803  20.508  23.739   4.489
 4732PAPS   C3B52804  20.720  24.119   4.755
 4732PAPS   C4B52805  21.077  24.309   4.935
 4733PAPS   CNO52806  26.705  31.706   2.641
 4733PAPS   PO452807  27.042  31.554   2.617
 4733PAPS   GL152808  27.095  31.445   3.003
 4733PAPS   GL252809  26.813  31.468   3.136
 4733PAPS   C1A52810  27.394  31.495   3.256
 4733PAPS   D2A52811  27.641  31.707   3.473
 4733PAPS   D3A52812  27.847  31.562   3.801
 4733PAPS   D4A52813  28.277  31.525   3.923
 4733PAPS   C5A52814  28.525  31.747   4.282
 4733PAPS   C1B52815  26.922  31.681   3.571
 4733PAPS   C2B52816  26.873  31.683   4.105
 4733PAPS   C3B52817  26.908  31.840   4.569
 4733PAPS   C4B52818  26.947  32.171   4.891
 4734PAPS   CNO52819  35.411  21.659   3.745
 4734PAPS   PO452820  35.642  21.860   3.931
 4734PAPS   GL152821  35.322  22.010   4.214
 4734PAPS   GL252822  35.170  21.749   4.209
 4734PAPS   C1A52823  35.275  22.000   4.524
 4734PAPS   D2A52824  35.111  22.096   4.837
 4734PAPS   D3A52825  35.240  21.898   5.224
 4734PAPS   D4A52826  35.280  22.205   5.587
 4734PAPS   C5A52827  35.107  22.656   5.689
 4734PAPS   C1B52828  35.461  21.533   4.439
 4734PAPS   C2B52829  35.549  21.485   4.904
 4734PAPS   C3B52830  35.469  21.495   5.411
 4734PAPS   C4B52831  35.644  21.532   5.917
 4735PAPS   CNO52832   2.495  12.031   3.354
 4735PAPS   PO452833   2.373  12.201   3.641
 4735PAPS   GL152834   1.973  12.366   3.822
 4735PAPS   GL252835   1.991  12.618   3.679
 4735PAPS   C1A52836   2.033  12.345   4.161
 4735PAPS   D2A52837   2.091  12.029   4.429
 4735PAPS   D3A52838   1.920  11.679   4.695
 4735PAPS   D4A52839   1.859  11.694   5.169
 4735PAPS   C5A52840   1.636  11.759   5.516
 4735PAPS   C1B52841   2.249  12.708   4.008
 4735PAPS   C2B52842   2.174  12.514   4.551
 4735PAPS   C3B52843   2.071  12.595   4.991
 4735PAPS   C4B52844   2.041  12.670   5.499
 4736PAPS   CNO52845  26.657   3.489   3.255
 4736PAPS   PO452846  26.442   3.759   3.424
 4736PAPS   GL152847  26.420   3.786   3.861
 4736PAPS   GL252848  26.443   4.007   3.954
 4736PAPS   C1A52849  26.439   3.542   4.159
 4736PAPS   D2A52850  26.273   3.235   4.274
 4736PAPS   D3A52851  26.210   2.930   4.561
 4736PAPS   D4A52852  26.294   2.837   5.057
 4736PAPS   C5A52853  25.840   2.696   4.998
 4736PAPS   C1B52854  26.434   4.032   4.406
 4736PAPS   C2B52855  26.458   4.000   4.876
 4736PAPS   C3B52856  26.659   3.825   5.260
 4736PAPS   C4B52857  26.864   3.649   5.633
 4737PAPS   CNO52858  20.868  13.545   3.299
 4737PAPS   PO452859  20.754  13.226   3.498
 4737PAPS   GL152860  20.629  13.360   3.920
 4737PAPS   GL252861  20.514  13.033   3.939
 4737PAPS   C1A52862  20.599  13.467   4.293
 4737PAPS   D2A52863  20.724  13.490   4.663
 4737PAPS   D3A52864  20.378  13.570   4.835
 4737PAPS   D4A52865  20.056  13.502   5.228
 4737PAPS   C5A52866  19.948  13.186   5.585
 4737PAPS   C1B52867  20.448  12.913   4.366
 4737PAPS   C2B52868  20.557  12.738   4.784
 4737PAPS   C3B52869  20.454  12.728   5.297
 4737PAPS   C4B52870  20.501  12.924   5.774
 4738PAPS   CNO52871   5.061  11.002   2.933
 4738PAPS   PO452872   5.244  10.916   3.292
 4738PAPS   GL152873   5.100  10.861   3.735
 4738PAPS   GL252874   5.384  10.832   3.743
 4738PAPS   C1A52875   5.008  10.801   4.075
 4738PAPS   D2A52876   4.885  10.558   4.372
 4738PAPS   D3A52877   4.481  10.632   4.612
 4738PAPS   D4A52878   4.481  10.727   5.081
 4738PAPS   C5A52879   4.347  10.305   5.248
 4738PAPS   C1B52880   5.400  10.918   4.162
 4738PAPS   C2B52881   5.315  10.689   4.625
 4738PAPS   C3B52882   5.014  10.516   4.921
 4738PAPS   C4B52883   4.825  10.522   5.389
 4739PAPS   CNO52884   8.550  28.510   2.805
 4739PAPS   PO452885   8.297  28.711   3.022
 4739PAPS   GL152886   8.231  28.452   3.341
 4739PAPS   GL252887   8.499  28.510   3.440
 4739PAPS   C1A52888   8.001  28.243   3.535
 4739PAPS   D2A52889   7.666  28.222   3.760
 4739PAPS   D3A52890   7.252  28.039   3.691
 4739PAPS   D4A52891   7.062  28.380   3.940
 4739PAPS   C5A52892   6.975  28.780   4.194
 4739PAPS   C1B52893   8.190  28.441   3.847
 4739PAPS   C2B52894   7.813  28.390   4.256
 4739PAPS   C3B52895   7.661  28.284   4.688
 4739PAPS   C4B52896   7.373  28.173   5.038
 4740PAPS   CNO52897  14.829  13.784   2.814
 4740PAPS   PO452898  14.479  13.834   2.976
 4740PAPS   GL152899  14.668  13.919   3.373
 4740PAPS   GL252900  14.842  14.042   3.211
 4740PAPS   C1A52901  14.400  14.019   3.602
 4740PAPS   D2A52902  14.534  13.989   3.974
 4740PAPS   D3A52903  14.382  13.995   4.375
 4740PAPS   D4A52904  14.226  14.003   4.785
 4740PAPS   C5A52905  13.910  14.242   5.088
 4740PAPS   C1B52906  15.220  14.144   3.378
 4740PAPS   C2B52907  15.509  14.178   3.766
 4740PAPS   C3B52908  15.613  14.109   4.256
 4740PAPS   C4B52909  15.831  13.892   4.589
 4741PAPS   CNO52910  32.545  31.662   3.286
 4741PAPS   PO452911  32.252  31.616   3.488
 4741PAPS   GL152912  32.272  31.846   3.825
 4741PAPS   GL252913  32.547  31.779   3.834
 4741PAPS   C1A52914  32.129  31.955   4.128
 4741PAPS   D2A52915  31.912  31.980   4.483
 4741PAPS   D3A52916  31.822  31.838   4.951
 4741PAPS   D4A52917  32.058  31.580   5.286
 4741PAPS   C5A52918  32.463  31.739   5.477
 4741PAPS   C1B52919  32.736  31.556   4.131
 4741PAPS   C2B52920  32.566  31.400   4.568
 4741PAPS   C3B52921  32.415  31.358   5.033
 4741PAPS   C4B52922  32.561  31.042   5.478
 4742PAPS   CNO52923  34.656   5.161   3.271
 4742PAPS   PO452924  34.810   4.838   3.413
 4742PAPS   GL152925  35.027   5.012   3.835
 4742PAPS   GL252926  34.727   4.932   3.848
 4742PAPS   C1A52927  35.222   5.075   4.159
 4742PAPS   D2A52928  35.169   5.285   4.459
 4742PAPS   D3A52929  35.069   5.194   4.966
 4742PAPS   D4A52930  35.155   5.140   5.442
 4742PAPS   C5A52931  35.344   4.759   5.679
 4742PAPS   C1B52932  34.544   4.633   4.070
 4742PAPS   C2B52933  34.289   4.234   4.203
 4742PAPS   C3B52934  33.925   3.961   4.326
 4742PAPS   C4B52935  33.568   3.683   4.044
 4743PAPS   CNO52936  22.883  11.043   3.551
 4743PAPS   PO452937  22.816  11.387   3.726
 4743PAPS   GL152938  22.830  11.291   4.104
 4743PAPS   GL252939  23.065  11.139   4.152
 4743PAPS   C1A52940  22.512  11.348   4.365
 4743PAPS   D2A52941  22.269  11.074   4.553
 4743PAPS   D3A52942  22.024  11.394   4.621
 4743PAPS   D4A52943  22.138  11.763   4.805
 4743PAPS   C5A52944  22.184  11.882   5.273
 4743PAPS   C1B52945  22.944  11.188   4.534
 4743PAPS   C2B52946  22.607  11.218   4.958
 4743PAPS   C3B52947  22.174  11.310   5.177
 4743PAPS   C4B52948  21.758  11.474   5.295
 4744PAPS   CNO52949  35.805   1.645   3.161
 4744PAPS   PO452950  35.985   1.476   3.409
 4744PAPS   GL152951  36.132   1.525   3.817
 4744PAPS   GL252952  35.981   1.355   3.855
 4744PAPS   C1A52953  36.376   1.446   4.103
 4744PAPS   D2A52954  36.613   1.299   4.353
 4744PAPS   D3A52955  36.618   0.944   4.620
 4744PAPS   D4A52956  36.366   0.717   4.977
 4744PAPS   C5A52957  36.712   0.671   5.342
 4744PAPS   C1B52958  35.950   1.509   4.298
 4744PAPS   C2B52959  35.965   1.625   4.843
 4744PAPS   C3B52960  36.020   1.971   5.208
 4744PAPS   C4B52961  36.211   2.480   5.179
 4745PAPS   CNO52962  23.313  12.056   3.866
 4745PAPS   PO452963  23.632  11.847   3.992
 4745PAPS   GL152964  23.852  11.808   4.329
 4745PAPS   GL252965  23.935  11.593   4.305
 4745PAPS   C1A52966  23.986  12.134   4.333
 4745PAPS   D2A52967  24.246  12.467   4.253
 4745PAPS   D3A52968  24.675  12.533   4.203
 4745PAPS   D4A52969  25.104  12.626   4.267
 4745PAPS   C5A52970  25.376  12.765   4.616
 4745PAPS   C1B52971  24.378  11.728   4.524
 4745PAPS   C2B52972  24.944  11.885   4.679
 4745PAPS   C3B52973  24.980  12.022   5.119
 4745PAPS   C4B52974  25.055  12.439   5.469
 4746PAPS   CNO52975  23.763  28.063   2.589
 4746PAPS   PO452976  23.702  28.321   2.873
 4746PAPS   GL152977  23.901  28.260   3.207
 4746PAPS   GL252978  23.955  28.034   3.244
 4746PAPS   C1A52979  23.950  28.512   3.481
 4746PAPS   D2A52980  24.022  28.633   3.882
 4746PAPS   D3A52981  24.374  28.901   3.843
 4746PAPS   D4A52982  24.658  29.170   4.089
 4746PAPS   C5A52983  24.793  29.647   4.085
 4746PAPS   C1B52984  24.103  28.167   3.721
 4746PAPS   C2B52985  24.126  28.033   4.196
 4746PAPS   C3B52986  23.975  28.208   4.655
 4746PAPS   C4B52987  23.996  28.190   5.113
 4747PAPS   CNO52988  23.201  17.483   3.539
 4747PAPS   PO452989  23.172  17.703   3.831
 4747PAPS   GL152990  23.429  17.556   4.272
 4747PAPS   GL252991  23.643  17.654   4.089
 4747PAPS   C1A52992  23.383  17.578   4.656
 4747PAPS   D2A52993  23.293  17.242   4.828
 4747PAPS   D3A52994  22.840  17.145   4.902
 4747PAPS   D4A52995  22.561  17.136   5.293
 4747PAPS   C5A52996  22.320  17.297   5.702
 4747PAPS   C1B52997  23.947  17.955   4.170
 4747PAPS   C2B52998  24.418  18.103   4.300
 4747PAPS   C3B52999  24.597  18.265   4.713
 4747PAPS   C4B53000  24.872  18.421   5.177
 4748PAPS   CNO53001  35.091  12.752   3.288
 4748PAPS   PO453002  34.961  12.449   3.485
 4748PAPS   GL153003  35.090  12.223   3.761
 4748PAPS   GL253004  34.879  12.029   3.869
 4748PAPS   C1A53005  35.073  12.415   4.106
 4748PAPS   D2A53006  34.877  12.371   4.464
 4748PAPS   D3A53007  34.959  12.329   4.945
 4748PAPS   D4A53008  34.803  12.676   5.276
 4748PAPS   C5A53009  34.654  12.746   4.813
 4748PAPS   C1B53010  34.804  11.959   4.286
 4748PAPS   C2B53011  34.652  11.828   4.767
 4748PAPS   C3B53012  34.662  11.696   5.214
 4748PAPS   C4B53013  34.652  11.327   5.490
 4749PAPS   CNO53014   7.429  11.283   2.975
 4749PAPS   PO453015   7.807  11.277   3.031
 4749PAPS   GL153016   7.907  11.200   3.466
 4749PAPS   GL253017   7.767  11.456   3.543
 4749PAPS   C1A53018   7.889  10.904   3.734
 4749PAPS   D2A53019   8.054  10.666   3.999
 4749PAPS   D3A53020   8.091  10.812   4.399
 4749PAPS   D4A53021   8.025  11.017   4.720
 4749PAPS   C5A53022   7.715  11.394   4.824
 4749PAPS   C1B53023   7.518  11.165   3.813
 4749PAPS   C2B53024   7.557  10.658   4.016
 4749PAPS   C3B53025   7.405  10.228   4.001
 4749PAPS   C4B53026   7.233   9.808   4.052
 4750PAPS   CNO53027   4.052  15.066   3.405
 4750PAPS   PO453028   4.134  14.878   3.731
 4750PAPS   GL153029   4.450  14.914   4.042
 4750PAPS   GL253030   4.235  14.981   4.195
 4750PAPS   C1A53031   4.704  14.646   4.122
 4750PAPS   D2A53032   4.632  14.307   4.386
 4750PAPS   D3A53033   4.824  13.899   4.477
 4750PAPS   D4A53034   4.890  13.847   4.935
 4750PAPS   C5A53035   4.850  13.677   5.362
 4750PAPS   C1B53036   4.495  14.727   4.442
 4750PAPS   C2B53037   4.843  14.761   4.840
 4750PAPS   C3B53038   5.037  14.793   5.293
 4750PAPS   C4B53039   4.832  14.683   5.737
 4751PAPS   CNO53040  11.809   4.855   3.273
 4751PAPS   PO453041  11.460   4.842   3.386
 4751PAPS   GL153042  11.423   4.480   3.691
 4751PAPS   GL253043  11.163   4.651   3.792
 4751PAPS   C1A53044  11.522   4.210   3.761
 4751PAPS   D2A53045  11.766   3.848   3.871
 4751PAPS   D3A53046  11.826   4.230   4.182
 4751PAPS   D4A53047  11.797   4.210   4.607
 4751PAPS   C5A53048  11.877   3.997   4.988
 4751PAPS   C1B53049  11.251   4.890   4.270
 4751PAPS   C2B53050  11.202   5.303   4.564
 4751PAPS   C3B53051  11.027   5.724   4.879
 4751PAPS   C4B53052  10.810   5.970   5.337
 4752PAPS   CNO53053  19.183  16.965   3.294
 4752PAPS   PO453054  18.922  17.019   3.579
 4752PAPS   GL153055  19.197  16.997   3.921
 4752PAPS   GL253056  19.304  16.714   3.885
 4752PAPS   C1A53057  19.465  17.219   4.080
 4752PAPS   D2A53058  19.497  17.263   4.446
 4752PAPS   D3A53059  19.696  17.656   4.658
 4752PAPS   D4A53060  19.632  17.883   5.069
 4752PAPS   C5A53061  19.624  18.210   4.717
 4752PAPS   C1B53062  19.360  16.531   4.324
 4752PAPS   C2B53063  19.733  16.436   4.640
 4752PAPS   C3B53064  19.950  16.054   4.872
 4752PAPS   C4B53065  20.247  15.689   5.110
 4753PAPS   CNO53066  29.782   2.748   3.202
 4753PAPS   PO453067  30.072   2.544   3.202
 4753PAPS   GL153068  29.894   2.405   3.691
 4753PAPS   GL253069  30.188   2.397   3.715
 4753PAPS   C1A53070  29.540   2.205   3.787
 4753PAPS   D2A53071  29.271   2.081   4.015
 4753PAPS   D3A53072  29.294   1.671   4.278
 4753PAPS   D4A53073  29.096   1.615   4.665
 4753PAPS   C5A53074  29.172   1.323   5.074
 4753PAPS   C1B53075  30.220   2.257   4.123
 4753PAPS   C2B53076  30.247   2.135   4.644
 4753PAPS   C3B53077  30.376   2.170   5.095
 4753PAPS   C4B53078  30.322   2.264   5.624
 4754PAPS   CNO53079  19.281  33.870   3.274
 4754PAPS   PO453080  19.585  34.098   3.416
 4754PAPS   GL153081  19.528  33.937   3.809
 4754PAPS   GL253082  19.799  33.930   3.845
 4754PAPS   C1A53083  19.350  33.610   3.750
 4754PAPS   D2A53084  19.303  33.186   3.686
 4754PAPS   D3A53085  19.252  32.911   3.345
 4754PAPS   D4A53086  19.355  32.718   3.749
 4754PAPS   C5A53087  19.726  32.758   4.065
 4754PAPS   C1B53088  20.013  33.863   4.265
 4754PAPS   C2B53089  20.102  33.541   4.610
 4754PAPS   C3B53090  20.034  33.504   5.097
 4754PAPS   C4B53091  20.288  33.829   5.444
 4755PAPS   CNO53092  22.448  19.395   3.522
 4755PAPS   PO453093  22.473  19.058   3.706
 4755PAPS   GL153094  22.610  19.114   4.214
 4755PAPS   GL253095  22.325  19.041   4.158
 4755PAPS   C1A53096  22.696  19.264   4.547
 4755PAPS   D2A53097  22.797  19.499   4.826
 4755PAPS   D3A53098  22.540  19.844   4.915
 4755PAPS   D4A53099  22.674  19.990   5.309
 4755PAPS   C5A53100  22.460  19.932   5.689
 4755PAPS   C1B53101  22.060  19.158   4.479
 4755PAPS   C2B53102  21.768  19.348   4.858
 4755PAPS   C3B53103  21.365  19.554   5.042
 4755PAPS   C4B53104  20.976  19.810   5.239
 4756PAPS   CNO53105   1.221  25.126   4.041
 4756PAPS   PO453106   1.484  25.405   3.951
 4756PAPS   GL153107   1.784  25.295   4.244
 4756PAPS   GL253108   1.602  25.125   4.381
 4756PAPS   C1A53109   2.009  25.420   4.497
 4756PAPS   D2A53110   2.120  25.240   4.873
 4756PAPS   D3A53111   2.059  25.299   5.349
 4756PAPS   D4A53112   2.312  25.443   5.650
 4756PAPS   C5A53113   2.589  25.233   5.292
 4756PAPS   C1B53114   1.303  25.295   4.516
 4756PAPS   C2B53115   0.934  25.349   4.795
 4756PAPS   C3B53116   0.722  25.175   5.194
 4756PAPS   C4B53117   0.541  24.943   5.562
 4757PAPS   CNO53118  28.373   9.046   3.156
 4757PAPS   PO453119  28.104   8.836   3.255
 4757PAPS   GL153120  28.328   8.800   3.566
 4757PAPS   GL253121  28.214   8.609   3.700
 4757PAPS   C1A53122  28.466   8.948   3.922
 4757PAPS   D2A53123  28.592   9.095   4.295
 4757PAPS   D3A53124  28.355   9.239   4.633
 4757PAPS   D4A53125  28.360   9.719   4.717
 4757PAPS   C5A53126  28.196  10.047   4.949
 4757PAPS   C1B53127  28.290   8.629   4.114
 4757PAPS   C2B53128  28.382   8.732   4.581
 4757PAPS   C3B53129  28.302   8.810   5.049
 4757PAPS   C4B53130  28.150   8.865   5.550
 4758PAPS   CNO53131   9.837  24.046   2.390
 4758PAPS   PO453132   9.697  24.328   2.588
 4758PAPS   GL153133   9.788  24.377   3.019
 4758PAPS   GL253134   9.902  24.670   2.929
 4758PAPS   C1A53135   9.878  24.095   3.252
 4758PAPS   D2A53136   9.815  23.843   3.559
 4758PAPS   D3A53137   9.934  23.823   3.940
 4758PAPS   D4A53138  10.059  23.860   4.454
 4758PAPS   C5A53139  10.142  23.536   4.807
 4758PAPS   C1B53140   9.776  24.694   3.313
 4758PAPS   C2B53141   9.571  24.754   3.780
 4758PAPS   C3B53142   9.380  24.495   4.136
 4758PAPS   C4B53143   9.250  24.213   4.516
 4759PAPS   CNO53144  32.987   4.788   3.256
 4759PAPS   PO453145  32.849   5.145   3.258
 4759PAPS   GL153146  32.936   5.073   3.633
 4759PAPS   GL253147  32.813   4.801   3.653
 4759PAPS   C1A53148  32.940   5.196   3.971
 4759PAPS   D2A53149  33.166   5.391   4.201
 4759PAPS   D3A53150  33.398   5.158   4.516
 4759PAPS   D4A53151  33.563   5.280   4.883
 4759PAPS   C5A53152  33.877   5.625   5.017
 4759PAPS   C1B53153  32.722   4.661   4.133
 4759PAPS   C2B53154  32.482   4.836   4.611
 4759PAPS   C3B53155  32.139   5.103   4.846
 4759PAPS   C4B53156  31.886   5.502   4.967
 4760PAPS   CNO53157  33.183  16.081   3.599
 4760PAPS   PO453158  33.388  16.252   3.851
 4760PAPS   GL153159  33.231  16.234   4.259
 4760PAPS   GL253160  33.508  16.359   4.370
 4760PAPS   C1A53161  33.006  16.485   4.444
 4760PAPS   D2A53162  33.036  16.693   4.769
 4760PAPS   D3A53163  33.057  17.115   4.795
 4760PAPS   D4A53164  33.423  17.089   5.066
 4760PAPS   C5A53165  33.518  17.575   5.075
 4760PAPS   C1B53166  33.628  16.151   4.823
 4760PAPS   C2B53167  33.606  16.116   5.328
 4760PAPS   C3B53168  33.908  16.285   5.644
 4760PAPS   C4B53169  34.106  16.687   5.842
 4761PAPS   CNO53170  17.543  16.291   3.322
 4761PAPS   PO453171  17.913  16.230   3.274
 4761PAPS   GL153172  18.056  16.032   3.664
 4761PAPS   GL253173  17.778  16.130   3.743
 4761PAPS   C1A53174  18.233  15.996   3.961
 4761PAPS   D2A53175  18.068  15.875   4.310
 4761PAPS   D3A53176  18.166  15.712   4.758
 4761PAPS   D4A53177  18.041  15.878   5.206
 4761PAPS   C5A53178  17.599  16.128   5.193
 4761PAPS   C1B53179  17.641  16.479   4.024
 4761PAPS   C2B53180  17.479  16.419   4.493
 4761PAPS   C3B53181  17.213  16.414   4.927
 4761PAPS   C4B53182  17.086  16.574   5.418
 4762PAPS   CNO53183  13.154  13.129   3.026
 4762PAPS   PO453184  13.011  12.935   3.320
 4762PAPS   GL153185  13.098  12.874   3.725
 4762PAPS   GL253186  13.122  13.165   3.808
 4762PAPS   C1A53187  13.167  12.625   3.887
 4762PAPS   D2A53188  13.106  12.438   4.213
 4762PAPS   D3A53189  12.938  12.475   4.661
 4762PAPS   D4A53190  12.574  12.308   4.843
 4762PAPS   C5A53191  12.484  12.446   5.287
 4762PAPS   C1B53192  12.830  13.194   4.093
 4762PAPS   C2B53193  12.663  13.433   4.513
 4762PAPS   C3B53194  12.517  13.421   5.026
 4762PAPS   C4B53195  12.437  13.629   5.442
 4763PAPS   CNO53196  33.165  27.139   3.544
 4763PAPS   PO453197  33.367  27.450   3.606
 4763PAPS   GL153198  33.272  27.728   3.902
 4763PAPS   GL253199  33.563  27.813   3.982
 4763PAPS   C1A53200  32.993  27.615   4.050
 4763PAPS   D2A53201  32.743  27.524   4.315
 4763PAPS   D3A53202  32.735  27.373   4.718
 4763PAPS   D4A53203  32.597  26.993   4.838
 4763PAPS   C5A53204  32.417  26.737   5.225
 4763PAPS   C1B53205  33.683  27.622   4.324
 4763PAPS   C2B53206  33.812  27.461   4.805
 4763PAPS   C3B53207  34.020  27.391   5.232
 4763PAPS   C4B53208  34.465  27.327   5.460
 4764PAPS   CNO53209  34.684  17.720   3.797
 4764PAPS   PO453210  34.338  17.619   3.921
 4764PAPS   GL153211  34.133  17.667   4.267
 4764PAPS   GL253212  34.232  17.430   4.280
 4764PAPS   C1A53213  33.841  17.567   4.521
 4764PAPS   D2A53214  33.455  17.464   4.579
 4764PAPS   D3A53215  33.420  17.101   4.387
 4764PAPS   D4A53216  33.522  16.749   4.632
 4764PAPS   C5A53217  33.619  16.634   5.079
 4764PAPS   C1B53218  34.330  17.256   4.709
 4764PAPS   C2B53219  34.421  17.063   5.166
 4764PAPS   C3B53220  34.282  17.138   5.599
 4764PAPS   C4B53221  33.982  17.354   5.920
 4765PAPS   CNO53222   4.982  26.047   3.101
 4765PAPS   PO453223   4.987  25.779   3.328
 4765PAPS   GL153224   5.338  25.803   3.497
 4765PAPS   GL253225   5.274  25.677   3.686
 4765PAPS   C1A53226   5.720  25.852   3.437
 4765PAPS   D2A53227   6.099  25.966   3.364
 4765PAPS   D3A53228   6.470  26.021   3.595
 4765PAPS   D4A53229   6.838  25.813   3.712
 4765PAPS   C5A53230   7.337  25.820   3.584
 4765PAPS   C1B53231   5.301  25.619   4.156
 4765PAPS   C2B53232   5.223  25.625   4.698
 4765PAPS   C3B53233   5.108  25.685   5.202
 4765PAPS   C4B53234   4.850  25.895   5.499
 4766PAPS   CNO53235   6.238  24.187   3.688
 4766PAPS   PO453236   6.491  24.291   3.424
 4766PAPS   GL153237   6.532  24.594   3.656
 4766PAPS   GL253238   6.201  24.635   3.643
 4766PAPS   C1A53239   6.794  24.681   3.816
 4766PAPS   D2A53240   6.988  24.664   4.174
 4766PAPS   D3A53241   6.934  24.211   4.327
 4766PAPS   D4A53242   6.895  24.163   4.812
 4766PAPS   C5A53243   6.481  24.063   4.865
 4766PAPS   C1B53244   5.929  24.836   3.970
 4766PAPS   C2B53245   5.970  24.934   4.487
 4766PAPS   C3B53246   6.160  25.052   4.880
 4766PAPS   C4B53247   6.238  25.245   5.321
 4767PAPS   CNO53248  31.976   8.618   3.257
 4767PAPS   PO453249  32.325   8.781   3.295
 4767PAPS   GL153250  32.277   8.891   3.696
 4767PAPS   GL253251  32.600   8.909   3.657
 4767PAPS   C1A53252  32.316   9.027   4.058
 4767PAPS   D2A53253  32.497   9.151   4.357
 4767PAPS   D3A53254  32.979   9.199   4.395
 4767PAPS   D4A53255  33.287   9.146   4.602
 4767PAPS   C5A53256  33.379   8.718   4.712
 4767PAPS   C1B53257  32.819   8.910   4.087
 4767PAPS   C2B53258  32.880   8.731   4.565
 4767PAPS   C3B53259  33.003   8.709   5.043
 4767PAPS   C4B53260  33.076   9.049   5.395
 4768PAPS   CNO53261   5.557   5.913   3.402
 4768PAPS   PO453262   5.271   6.059   3.540
 4768PAPS   GL153263   5.325   6.162   4.026
 4768PAPS   GL253264   5.198   5.935   3.963
 4768PAPS   C1A53265   5.224   6.263   4.372
 4768PAPS   D2A53266   5.459   6.415   4.721
 4768PAPS   D3A53267   5.792   6.462   4.979
 4768PAPS   D4A53268   5.955   6.909   4.877
 4768PAPS   C5A53269   5.754   7.080   4.482
 4768PAPS   C1B53270   5.459   5.801   4.277
 4768PAPS   C2B53271   5.728   5.977   4.729
 4768PAPS   C3B53272   6.027   5.754   5.097
 4768PAPS   C4B53273   6.289   5.713   5.505
 4769PAPS   CNO53274  31.935   1.741   2.839
 4769PAPS   PO453275  32.033   2.027   3.062
 4769PAPS   GL153276  31.972   2.004   3.514
 4769PAPS   GL253277  32.228   2.042   3.560
 4769PAPS   C1A53278  31.767   2.015   3.788
 4769PAPS   D2A53279  31.650   2.024   4.183
 4769PAPS   D3A53280  31.904   1.728   4.431
 4769PAPS   D4A53281  31.956   1.765   4.852
 4769PAPS   C5A53282  32.136   1.403   4.795
 4769PAPS   C1B53283  32.151   1.906   4.022
 4769PAPS   C2B53284  32.080   2.197   4.470
 4769PAPS   C3B53285  32.107   2.474   4.823
 4769PAPS   C4B53286  32.170   2.873   5.045
 4770PAPS   CNO53287  24.454  29.727   2.703
 4770PAPS   PO453288  24.274  30.034   2.810
 4770PAPS   GL153289  24.471  30.163   3.284
 4770PAPS   GL253290  24.492  29.959   3.283
 4770PAPS   C1A53291  24.694  30.318   3.546
 4770PAPS   D2A53292  24.622  30.457   3.918
 4770PAPS   D3A53293  24.738  30.602   4.405
 4770PAPS   D4A53294  24.776  30.862   4.816
 4770PAPS   C5A53295  24.431  30.664   5.073
 4770PAPS   C1B53296  24.625  29.962   3.777
 4770PAPS   C2B53297  24.573  30.067   4.262
 4770PAPS   C3B53298  24.382  30.114   4.705
 4770PAPS   C4B53299  24.396  30.158   5.176
 4771PAPS   CNO53300   4.315  25.118   2.912
 4771PAPS   PO453301   4.191  24.897   3.196
 4771PAPS   GL153302   4.538  24.896   3.365
 4771PAPS   GL253303   4.590  24.710   3.618
 4771PAPS   C1A53304   4.674  25.141   3.613
 4771PAPS   D2A53305   4.865  25.458   3.724
 4771PAPS   D3A53306   4.914  25.396   4.176
 4771PAPS   D4A53307   5.192  25.119   4.470
 4771PAPS   C5A53308   5.545  24.969   4.247
 4771PAPS   C1B53309   4.731  24.927   3.963
 4771PAPS   C2B53310   4.666  25.063   4.423
 4771PAPS   C3B53311   4.506  25.522   4.595
 4771PAPS   C4B53312   4.182  25.826   4.753
 4772PAPS   CNO53313  25.007  34.771   3.323
 4772PAPS   PO453314  24.729  34.587   3.482
 4772PAPS   GL153315  24.599  34.374   3.812
 4772PAPS   GL253316  24.565  34.102   3.677
 4772PAPS   C1A53317  24.762  34.400   4.175
 4772PAPS   D2A53318  24.886  34.317   4.521
 4772PAPS   D3A53319  24.433  34.454   4.505
 4772PAPS   D4A53320  24.329  34.345   4.159
 4772PAPS   C5A53321  23.957  34.681   4.119
 4772PAPS   C1B53322  24.451  33.934   4.099
 4772PAPS   C2B53323  24.552  33.905   4.614
 4772PAPS   C3B53324  24.584  34.051   5.031
 4772PAPS   C4B53325  24.582  34.300   5.418
 4773PAPS   CNO53326   8.308   4.479   3.416
 4773PAPS   PO453327   8.002   4.664   3.486
 4773PAPS   GL153328   7.887   4.508   3.832
 4773PAPS   GL253329   7.921   4.784   3.954
 4773PAPS   C1A53330   7.994   4.238   4.016
 4773PAPS   D2A53331   8.221   3.962   4.235
 4773PAPS   D3A53332   8.248   4.081   4.657
 4773PAPS   D4A53333   8.357   4.433   4.888
 4773PAPS   C5A53334   8.075   4.699   5.066
 4773PAPS   C1B53335   8.242   4.920   4.270
 4773PAPS   C2B53336   8.566   4.816   4.663
 4773PAPS   C3B53337   8.625   4.821   5.171
 4773PAPS   C4B53338   8.765   4.947   5.563
 4774PAPS   CNO53339  10.267  21.113   2.393
 4774PAPS   PO453340  10.260  21.106   2.767
 4774PAPS   GL153341  10.540  20.951   3.178
 4774PAPS   GL253342  10.343  20.703   3.108
 4774PAPS   C1A53343  10.673  20.723   3.416
 4774PAPS   D2A53344  10.702  20.614   3.853
 4774PAPS   D3A53345  10.848  21.025   3.865
 4774PAPS   D4A53346  11.067  21.363   4.153
 4774PAPS   C5A53347  11.119  21.677   3.844
 4774PAPS   C1B53348  10.285  20.488   3.496
 4774PAPS   C2B53349  10.255  20.429   3.998
 4774PAPS   C3B53350   9.982  20.776   4.273
 4774PAPS   C4B53351   9.733  20.738   4.749
 4775PAPS   CNO53352  27.677  35.916   3.520
 4775PAPS   PO453353  27.775  36.280   3.477
 4775PAPS   GL153354  27.893  36.229   3.933
 4775PAPS   GL253355  27.943  36.509   3.956
 4775PAPS   C1A53356  28.019  36.024   4.183
 4775PAPS   D2A53357  28.229  35.754   4.289
 4775PAPS   D3A53358  28.088  35.639   4.792
 4775PAPS   D4A53359  27.914  35.735   5.153
 4775PAPS   C5A53360  28.176  35.683   5.505
 4775PAPS   C1B53361  28.046  36.557   4.418
 4775PAPS   C2B53362  27.975  36.484   4.870
 4775PAPS   C3B53363  27.775  36.218   5.189
 4775PAPS   C4B53364  27.344  36.111   5.472
 4776PAPS   CNO53365  13.889  24.815   3.177
 4776PAPS   PO453366  14.105  24.463   3.138
 4776PAPS   GL153367  14.006  24.381   3.595
 4776PAPS   GL253368  13.957  24.638   3.584
 4776PAPS   C1A53369  13.977  24.102   3.896
 4776PAPS   D2A53370  13.720  23.838   4.088
 4776PAPS   D3A53371  13.956  24.072   4.431
 4776PAPS   D4A53372  13.628  24.304   4.643
 4776PAPS   C5A53373  13.160  24.240   4.828
 4776PAPS   C1B53374  13.740  24.821   3.878
 4776PAPS   C2B53375  13.708  25.135   4.406
 4776PAPS   C3B53376  13.428  25.190   4.784
 4776PAPS   C4B53377  13.215  25.250   5.221
 4777PAPS   CNO53378  24.948  29.578   2.799
 4777PAPS   PO453379  25.233  29.782   2.764
 4777PAPS   GL153380  25.297  30.080   3.031
 4777PAPS   GL253381  25.502  29.870   3.235
 4777PAPS   C1A53382  25.115  30.336   3.213
 4777PAPS   D2A53383  25.078  30.605   3.578
 4777PAPS   D3A53384  25.126  31.045   3.761
 4777PAPS   D4A53385  25.241  30.905   4.177
 4777PAPS   C5A53386  25.364  31.043   4.658
 4777PAPS   C1B53387  25.555  29.954   3.675
 4777PAPS   C2B53388  25.534  30.121   4.194
 4777PAPS   C3B53389  25.845  30.372   4.479
 4777PAPS   C4B53390  25.727  30.743   4.818
 4778PAPS   CNO53391  16.541  14.336   2.719
 4778PAPS   PO453392  16.699  14.250   3.020
 4778PAPS   GL153393  16.971  14.332   3.350
 4778PAPS   GL253394  16.839  14.076   3.510
 4778PAPS   C1A53395  17.319  14.405   3.478
 4778PAPS   D2A53396  17.603  14.204   3.655
 4778PAPS   D3A53397  17.317  13.839   3.581
 4778PAPS   D4A53398  16.964  13.802   3.876
 4778PAPS   C5A53399  16.639  14.101   3.942
 4778PAPS   C1B53400  17.075  14.219   3.824
 4778PAPS   C2B53401  17.293  14.389   4.242
 4778PAPS   C3B53402  17.203  14.383   4.761
 4778PAPS   C4B53403  17.004  14.546   5.148
 4779PAPS   CNO53404  23.251  18.736   3.224
 4779PAPS   PO453405  23.387  19.002   3.425
 4779PAPS   GL153406  23.162  19.030   3.793
 4779PAPS   GL253407  23.388  19.202   3.930
 4779PAPS   C1A53408  22.968  18.986   4.082
 4779PAPS   D2A53409  23.073  18.927   4.442
 4779PAPS   D3A53410  22.910  19.016   4.857
 4779PAPS   D4A53411  22.867  19.151   5.231
 4779PAPS   C5A53412  23.143  19.201   5.623
 4779PAPS   C1B53413  23.123  19.396   4.335
 4779PAPS   C2B53414  23.240  19.728   4.721
 4779PAPS   C3B53415  23.083  19.621   5.162
 4779PAPS   C4B53416  22.771  19.543   5.558
 4780PAPS   CNO53417  23.594  17.017   3.603
 4780PAPS   PO453418  23.756  17.021   3.954
 4780PAPS   GL153419  23.664  17.166   4.410
 4780PAPS   GL253420  23.678  16.844   4.470
 4780PAPS   C1A53421  23.844  17.464   4.566
 4780PAPS   D2A53422  23.830  17.631   4.927
 4780PAPS   D3A53423  24.141  17.758   5.178
 4780PAPS   D4A53424  24.296  17.691   5.623
 4780PAPS   C5A53425  24.562  17.988   5.952
 4780PAPS   C1B53426  23.334  16.615   4.631
 4780PAPS   C2B53427  23.220  16.843   5.081
 4780PAPS   C3B53428  23.191  17.094   5.477
 4780PAPS   C4B53429  22.825  17.388   5.705
 4781PAPS   CNO53430  33.196  12.411   3.123
 4781PAPS   PO453431  32.843  12.266   3.238
 4781PAPS   GL153432  32.732  12.102   3.627
 4781PAPS   GL253433  33.020  12.155   3.654
 4781PAPS   C1A53434  32.655  12.191   3.995
 4781PAPS   D2A53435  32.779  12.332   4.345
 4781PAPS   D3A53436  32.895  12.697   4.570
 4781PAPS   D4A53437  32.935  12.846   4.170
 4781PAPS   C5A53438  32.511  12.659   4.055
 4781PAPS   C1B53439  33.108  11.919   4.029
 4781PAPS   C2B53440  33.340  11.758   4.450
 4781PAPS   C3B53441  33.572  11.886   4.889
 4781PAPS   C4B53442  33.930  12.211   4.902
 4782PAPS   CNO53443  19.915  13.759   3.144
 4782PAPS   PO453444  20.071  13.805   3.517
 4782PAPS   GL153445  19.986  13.855   3.908
 4782PAPS   GL253446  20.068  13.586   3.972
 4782PAPS   C1A53447  20.162  14.098   4.142
 4782PAPS   D2A53448  20.454  14.082   4.424
 4782PAPS   D3A53449  20.442  14.142   4.869
 4782PAPS   D4A53450  20.545  13.882   5.252
 4782PAPS   C5A53451  20.669  13.785   5.662
 4782PAPS   C1B53452  20.049  13.535   4.435
 4782PAPS   C2B53453  19.896  13.288   4.814
 4782PAPS   C3B53454  19.859  12.893   5.140
 4782PAPS   C4B53455  19.806  12.385   5.154
 4783PAPS   CNO53456  33.458   1.346   3.428
 4783PAPS   PO453457  33.189   1.130   3.573
 4783PAPS   GL153458  32.817   1.171   3.649
 4783PAPS   GL253459  32.785   1.452   3.633
 4783PAPS   C1A53460  32.582   1.048   3.971
 4783PAPS   D2A53461  32.364   0.848   4.234
 4783PAPS   D3A53462  32.372   0.999   4.630
 4783PAPS   D4A53463  32.211   0.973   5.066
 4783PAPS   C5A53464  31.756   0.860   5.369
 4783PAPS   C1B53465  32.741   1.448   4.057
 4783PAPS   C2B53466  32.791   1.414   4.542
 4783PAPS   C3B53467  32.603   1.333   4.962
 4783PAPS   C4B53468  32.507   1.605   5.360
 4784PAPS   CNO53469   2.380   1.316   2.740
 4784PAPS   PO453470   2.530   1.529   3.032
 4784PAPS   GL153471   2.543   1.463   3.407
 4784PAPS   GL253472   2.638   1.605   3.587
 4784PAPS   C1A53473   2.321   1.197   3.588
 4784PAPS   D2A53474   2.064   0.929   3.720
 4784PAPS   D3A53475   2.069   1.138   4.160
 4784PAPS   D4A53476   1.907   1.524   4.344
 4784PAPS   C5A53477   1.512   1.477   4.609
 4784PAPS   C1B53478   2.644   1.192   3.869
 4784PAPS   C2B53479   2.433   0.877   4.175
 4784PAPS   C3B53480   2.266   0.461   4.429
 4784PAPS   C4B53481   2.118   0.091   4.183
 4785PAPS   CNO53482  32.327  27.299   3.602
 4785PAPS   PO453483  32.080  27.094   3.347
 4785PAPS   GL153484  31.811  27.265   3.692
 4785PAPS   GL253485  31.973  27.051   3.833
 4785PAPS   C1A53486  31.754  27.619   3.891
 4785PAPS   D2A53487  31.615  27.973   3.998
 4785PAPS   D3A53488  31.575  28.368   4.160
 4785PAPS   D4A53489  31.301  28.497   4.444
 4785PAPS   C5A53490  31.406  28.408   4.847
 4785PAPS   C1B53491  32.018  27.026   4.259
 4785PAPS   C2B53492  32.039  26.914   4.782
 4785PAPS   C3B53493  31.997  26.496   4.972
 4785PAPS   C4B53494  32.009  26.235   5.347
 4786PAPS   CNO53495  13.245  30.723   3.184
 4786PAPS   PO453496  12.976  30.773   3.421
 4786PAPS   GL153497  13.221  30.822   3.787
 4786PAPS   GL253498  12.971  30.870   3.881
 4786PAPS   C1A53499  13.130  30.529   4.033
 4786PAPS   D2A53500  13.021  30.443   4.414
 4786PAPS   D3A53501  13.161  30.648   4.763
 4786PAPS   D4A53502  13.016  30.257   4.960
 4786PAPS   C5A53503  13.498  30.274   5.054
 4786PAPS   C1B53504  13.096  30.877   4.286
 4786PAPS   C2B53505  12.862  31.092   4.668
 4786PAPS   C3B53506  12.676  30.901   5.027
 4786PAPS   C4B53507  12.397  30.658   5.322
 4787PAPS   CNO53508  33.687  30.454   3.072
 4787PAPS   PO453509  33.414  30.255   3.255
 4787PAPS   GL153510  33.229  30.306   3.673
 4787PAPS   GL253511  33.095  30.550   3.691
 4787PAPS   C1A53512  33.267  30.264   4.026
 4787PAPS   D2A53513  33.321  29.906   4.267
 4787PAPS   D3A53514  33.592  29.840   4.638
 4787PAPS   D4A53515  33.516  29.917   5.088
 4787PAPS   C5A53516  33.590  30.208   5.451
 4787PAPS   C1B53517  32.979  30.558   4.092
 4787PAPS   C2B53518  32.901  30.604   4.619
 4787PAPS   C3B53519  32.932  30.819   5.047
 4787PAPS   C4B53520  33.247  31.014   5.380
 4788PAPS   CNO53521   7.082  12.911   3.146
 4788PAPS   PO453522   6.884  13.214   3.278
 4788PAPS   GL153523   6.853  13.454   3.688
 4788PAPS   GL253524   6.844  13.187   3.795
 4788PAPS   C1A53525   6.968  13.739   3.811
 4788PAPS   D2A53526   7.116  13.985   4.060
 4788PAPS   D3A53527   7.086  13.822   4.438
 4788PAPS   D4A53528   6.734  13.875   4.721
 4788PAPS   C5A53529   6.317  13.750   4.661
 4788PAPS   C1B53530   6.880  12.950   4.156
 4788PAPS   C2B53531   7.143  12.688   4.466
 4788PAPS   C3B53532   7.279  12.542   4.925
 4788PAPS   C4B53533   7.342  12.324   5.319
 4789PAPS   CNO53534  11.329  18.002   2.802
 4789PAPS   PO453535  11.055  17.891   3.041
 4789PAPS   GL153536  11.223  17.671   3.356
 4789PAPS   GL253537  10.974  17.720   3.479
 4789PAPS   C1A53538  11.559  17.634   3.569
 4789PAPS   D2A53539  11.675  17.763   3.903
 4789PAPS   D3A53540  11.636  17.934   4.312
 4789PAPS   D4A53541  11.779  18.046   4.718
 4789PAPS   C5A53542  11.562  17.669   4.904
 4789PAPS   C1B53543  10.879  17.813   3.941
 4789PAPS   C2B53544  10.816  18.075   4.393
 4789PAPS   C3B53545  10.838  18.478   4.656
 4789PAPS   C4B53546  10.744  18.883   4.906
 4790PAPS   CNO53547   0.408  34.817   3.641
 4790PAPS   PO453548   0.263  35.031   3.351
 4790PAPS   GL153549  -0.088  35.089   3.603
 4790PAPS   GL253550  -0.157  35.333   3.520
 4790PAPS   C1A53551   0.070  35.067   3.879
 4790PAPS   D2A53552   0.270  35.239   4.164
 4790PAPS   D3A53553   0.318  35.175   4.628
 4790PAPS   D4A53554   0.537  34.953   4.988
 4790PAPS   C5A53555   0.522  35.334   5.279
 4790PAPS   C1B53556  -0.345  35.385   3.821
 4790PAPS   C2B53557  -0.161  35.337   4.314
 4790PAPS   C3B53558  -0.276  35.279   4.753
 4790PAPS   C4B53559  -0.379  35.053   5.192
 4791PAPS   CNO53560  29.140  29.265   2.698
 4791PAPS   PO453561  29.310  29.190   3.036
 4791PAPS   GL153562  29.270  29.466   3.383
 4791PAPS   GL253563  29.031  29.469   3.456
 4791PAPS   C1A53564  29.362  29.381   3.762
 4791PAPS   D2A53565  29.656  29.480   3.999
 4791PAPS   D3A53566  29.352  29.441   4.299
 4791PAPS   D4A53567  29.198  29.645   4.647
 4791PAPS   C5A53568  28.655  29.638   4.689
 4791PAPS   C1B53569  28.937  29.383   3.880
 4791PAPS   C2B53570  28.822  29.158   4.338
 4791PAPS   C3B53571  28.667  28.953   4.742
 4791PAPS   C4B53572  28.452  28.747   5.145
 4792PAPS   CNO53573  22.489   6.571   2.902
 4792PAPS   PO453574  22.293   6.818   3.089
 4792PAPS   GL153575  22.312   6.837   3.505
 4792PAPS   GL253576  22.563   7.017   3.506
 4792PAPS   C1A53577  22.068   6.789   3.766
 4792PAPS   D2A53578  21.792   6.946   4.018
 4792PAPS   D3A53579  21.832   7.220   4.386
 4792PAPS   D4A53580  21.927   7.022   4.777
 4792PAPS   C5A53581  21.969   7.111   5.252
 4792PAPS   C1B53582  22.805   6.943   3.900
 4792PAPS   C2B53583  22.838   6.853   4.386
 4792PAPS   C3B53584  22.833   6.906   4.869
 4792PAPS   C4B53585  22.837   6.702   5.302
 4793PAPS   CNO53586  20.252  20.877   3.339
 4793PAPS   PO453587  20.283  21.181   3.592
 4793PAPS   GL153588  20.206  21.189   4.026
 4793PAPS   GL253589  19.917  21.078   4.059
 4793PAPS   C1A53590  20.318  21.249   4.345
 4793PAPS   D2A53591  20.190  21.232   4.753
 4793PAPS   D3A53592  19.754  21.258   4.805
 4793PAPS   D4A53593  19.602  21.655   4.951
 4793PAPS   C5A53594  19.559  21.952   5.279
 4793PAPS   C1B53595  19.820  20.914   4.515
 4793PAPS   C2B53596  19.645  20.773   4.983
 4793PAPS   C3B53597  19.385  20.823   5.388
 4793PAPS   C4B53598  19.251  20.921   5.804
 4794PAPS   CNO53599  16.732  29.760   2.918
 4794PAPS   PO453600  16.678  29.504   3.253
 4794PAPS   GL153601  16.540  29.434   3.656
 4794PAPS   GL253602  16.396  29.710   3.724
 4794PAPS   C1A53603  16.681  29.151   3.833
 4794PAPS   D2A53604  16.835  28.953   4.185
 4794PAPS   D3A53605  16.470  28.823   4.425
 4794PAPS   D4A53606  16.268  28.428   4.709
 4794PAPS   C5A53607  16.204  28.343   5.180
 4794PAPS   C1B53608  16.344  29.662   4.142
 4794PAPS   C2B53609  16.382  29.692   4.637
 4794PAPS   C3B53610  16.441  29.704   5.103
 4794PAPS   C4B53611  16.481  29.997   5.453
 4795PAPS   CNO53612  19.037   6.861   3.412
 4795PAPS   PO453613  19.136   6.486   3.458
 4795PAPS   GL153614  19.318   6.452   3.848
 4795PAPS   GL253615  19.353   6.731   3.924
 4795PAPS   C1A53616  19.331   6.204   4.108
 4795PAPS   D2A53617  19.309   5.796   4.194
 4795PAPS   D3A53618  19.429   5.840   4.661
 4795PAPS   D4A53619  19.601   6.006   5.085
 4795PAPS   C5A53620  20.062   6.052   5.223
 4795PAPS   C1B53621  19.323   6.606   4.336
 4795PAPS   C2B53622  19.352   6.441   4.799
 4795PAPS   C3B53623  19.550   6.454   5.288
 4795PAPS   C4B53624  19.895   6.389   5.597
 4796PAPS   CNO53625   7.100   2.811   2.838
 4796PAPS   PO453626   6.757   2.868   2.975
 4796PAPS   GL153627   6.812   2.928   3.332
 4796PAPS   GL253628   7.080   2.859   3.329
 4796PAPS   C1A53629   6.561   2.843   3.566
 4796PAPS   D2A53630   6.297   2.866   3.866
 4796PAPS   D3A53631   6.385   2.656   4.333
 4796PAPS   D4A53632   6.707   2.874   4.503
 4796PAPS   C5A53633   6.699   2.935   4.052
 4796PAPS   C1B53634   7.406   2.930   3.676
 4796PAPS   C2B53635   7.570   2.658   4.099
 4796PAPS   C3B53636   7.740   2.598   4.583
 4796PAPS   C4B53637   8.085   2.593   4.913
 4797PAPS   CNO53638   0.079   7.080   2.829
 4797PAPS   PO453639  -0.238   7.061   3.052
 4797PAPS   GL153640  -0.184   7.129   3.417
 4797PAPS   GL253641  -0.350   7.223   3.578
 4797PAPS   C1A53642   0.150   7.101   3.679
 4797PAPS   D2A53643   0.443   7.168   3.961
 4797PAPS   D3A53644   0.716   6.869   4.160
 4797PAPS   D4A53645   0.983   6.632   4.458
 4797PAPS   C5A53646   1.478   6.692   4.539
 4797PAPS   C1B53647  -0.061   7.372   3.918
 4797PAPS   C2B53648   0.139   7.319   4.361
 4797PAPS   C3B53649   0.245   7.124   4.757
 4797PAPS   C4B53650   0.239   6.765   5.103
 4798PAPS   CNO53651   1.386  15.955   3.712
 4798PAPS   PO453652   1.209  15.765   4.015
 4798PAPS   GL153653   1.435  15.803   4.440
 4798PAPS   GL253654   1.227  16.086   4.420
 4798PAPS   C1A53655   1.481  15.612   4.732
 4798PAPS   D2A53656   1.277  15.350   4.958
 4798PAPS   D3A53657   1.240  15.105   5.332
 4798PAPS   D4A53658   0.808  15.117   5.474
 4798PAPS   C5A53659   0.813  14.697   5.299
 4798PAPS   C1B53660   1.318  16.322   4.812
 4798PAPS   C2B53661   1.413  16.373   5.281
 4798PAPS   C3B53662   1.318  16.536   5.700
 4798PAPS   C4B53663   1.065  16.425   6.110
 4799PAPS   CNO53664  16.714  12.801   3.091
 4799PAPS   PO453665  16.829  12.943   3.408
 4799PAPS   GL153666  16.987  12.776   3.693
 4799PAPS   GL253667  16.832  12.627   3.848
 4799PAPS   C1A53668  17.091  13.003   4.008
 4799PAPS   D2A53669  17.192  13.097   4.318
 4799PAPS   D3A53670  17.061  13.464   4.365
 4799PAPS   D4A53671  17.067  13.476   4.813
 4799PAPS   C5A53672  17.330  13.181   5.088
 4799PAPS   C1B53673  16.935  12.322   4.176
 4799PAPS   C2B53674  17.350  11.948   4.360
 4799PAPS   C3B53675  17.414  11.656   4.691
 4799PAPS   C4B53676  17.477  11.317   5.061
 4800PAPS   CNO53677  29.263   6.712   3.015
 4800PAPS   PO453678  29.006   6.515   3.141
 4800PAPS   GL153679  29.177   6.712   3.504
 4800PAPS   GL253680  29.302   6.528   3.659
 4800PAPS   C1A53681  28.960   6.948   3.741
 4800PAPS   D2A53682  28.824   6.968   4.095
 4800PAPS   D3A53683  28.815   6.698   4.509
 4800PAPS   D4A53684  28.559   6.461   4.795
 4800PAPS   C5A53685  28.366   6.436   5.228
 4800PAPS   C1B53686  29.341   6.872   3.950
 4800PAPS   C2B53687  29.422   7.197   4.293
 4800PAPS   C3B53688  29.371   7.407   4.743
 4800PAPS   C4B53689  29.485   7.898   4.728
 4801PAPS   CNO53690  18.917  11.933   3.492
 4801PAPS   PO453691  18.932  12.274   3.383
 4801PAPS   GL153692  18.915  12.446   3.766
 4801PAPS   GL253693  18.912  12.148   3.937
 4801PAPS   C1A53694  18.596  12.571   3.932
 4801PAPS   D2A53695  18.260  12.571   4.061
 4801PAPS   D3A53696  18.093  12.603   4.458
 4801PAPS   D4A53697  17.955  12.678   4.850
 4801PAPS   C5A53698  17.898  12.875   5.252
 4801PAPS   C1B53699  18.927  12.036   4.384
 4801PAPS   C2B53700  18.596  11.956   4.701
 4801PAPS   C3B53701  18.186  12.120   4.523
 4801PAPS   C4B53702  17.745  12.313   4.346
 4802PAPS   CNO53703   5.617  16.757   3.378
 4802PAPS   PO453704   5.268  16.721   3.590
 4802PAPS   GL153705   5.090  17.023   3.904
 4802PAPS   GL253706   5.002  16.794   4.111
 4802PAPS   C1A53707   5.171  17.318   3.989
 4802PAPS   D2A53708   5.148  17.732   4.025
 4802PAPS   D3A53709   5.365  17.671   4.394
 4802PAPS   D4A53710   5.463  17.491   4.817
 4802PAPS   C5A53711   5.817  17.195   5.020
 4802PAPS   C1B53712   5.099  16.602   4.458
 4802PAPS   C2B53713   5.384  16.744   4.924
 4802PAPS   C3B53714   5.552  16.907   5.325
 4802PAPS   C4B53715   5.719  17.165   5.662
 4803PAPS   CNO53716   6.621   0.257   2.783
 4803PAPS   PO453717   6.385   0.450   2.995
 4803PAPS   GL153718   6.396   0.258   3.368
 4803PAPS   GL253719   6.272   0.454   3.522
 4803PAPS   C1A53720   6.601   0.021   3.535
 4803PAPS   D2A53721   6.760  -0.251   3.359
 4803PAPS   D3A53722   6.360  -0.341   3.616
 4803PAPS   D4A53723   6.154   0.037   3.780
 4803PAPS   C5A53724   6.196   0.144   4.196
 4803PAPS   C1B53725   6.434   0.366   3.925
 4803PAPS   C2B53726   6.377   0.787   4.220
 4803PAPS   C3B53727   6.315   0.758   4.665
 4803PAPS   C4B53728   6.336   0.651   5.164
 4804PAPS   CNO53729   7.713   7.306   3.066
 4804PAPS   PO453730   7.564   7.421   3.402
 4804PAPS   GL153731   7.822   7.361   3.738
 4804PAPS   GL253732   7.542   7.203   3.846
 4804PAPS   C1A53733   7.795   7.574   4.051
 4804PAPS   D2A53734   7.726   7.622   4.478
 4804PAPS   D3A53735   7.653   7.820   4.882
 4804PAPS   D4A53736   7.709   7.624   5.334
 4804PAPS   C5A53737   7.642   7.388   5.724
 4804PAPS   C1B53738   7.671   7.119   4.200
 4804PAPS   C2B53739   7.707   7.042   4.674
 4804PAPS   C3B53740   7.799   6.888   5.128
 4804PAPS   C4B53741   8.050   6.709   5.444
 4805PAPS   CNO53742   8.204   0.602   2.627
 4805PAPS   PO453743   8.530   0.624   2.789
 4805PAPS   GL153744   8.599   0.625   3.100
 4805PAPS   GL253745   8.704   0.825   3.276
 4805PAPS   C1A53746   8.657   0.435   3.453
 4805PAPS   D2A53747   8.961   0.250   3.521
 4805PAPS   D3A53748   9.304   0.399   3.732
 4805PAPS   D4A53749   9.449  -0.007   3.990
 4805PAPS   C5A53750   9.362   0.004   4.448
 4805PAPS   C1B53751   9.009   0.705   3.536
 4805PAPS   C2B53752   9.403   0.878   3.785
 4805PAPS   C3B53753   9.815   0.855   3.918
 4805PAPS   C4B53754  10.230   0.591   4.112
 4806PAPS   CNO53755  16.537   7.593   3.268
 4806PAPS   PO453756  16.422   7.781   3.594
 4806PAPS   GL153757  16.594   7.723   4.034
 4806PAPS   GL253758  16.296   7.735   4.093
 4806PAPS   C1A53759  16.726   7.760   4.356
 4806PAPS   D2A53760  16.981   7.790   4.652
 4806PAPS   D3A53761  16.931   7.392   4.837
 4806PAPS   D4A53762  16.827   7.013   5.020
 4806PAPS   C5A53763  17.152   7.161   5.398
 4806PAPS   C1B53764  16.330   7.783   4.497
 4806PAPS   C2B53765  16.139   7.745   4.986
 4806PAPS   C3B53766  16.599   7.686   5.147
 4806PAPS   C4B53767  16.621   7.469   5.602
 4807PAPS   CNO53768  21.766  13.820   3.547
 4807PAPS   PO453769  21.512  13.720   3.780
 4807PAPS   GL153770  21.595  13.510   4.069
 4807PAPS   GL253771  21.356  13.602   4.241
 4807PAPS   C1A53772  21.860  13.488   4.317
 4807PAPS   D2A53773  21.981  13.140   4.361
 4807PAPS   D3A53774  22.043  13.083   4.810
 4807PAPS   D4A53775  21.899  12.723   5.054
 4807PAPS   C5A53776  22.035  12.628   5.568
 4807PAPS   C1B53777  21.386  13.828   4.684
 4807PAPS   C2B53778  21.424  13.652   5.117
 4807PAPS   C3B53779  21.554  13.622   5.532
 4807PAPS   C4B53780  21.837  13.718   5.870
 4808PAPS   CNO53781   9.555  14.726   3.170
 4808PAPS   PO453782   9.886  14.913   3.324
 4808PAPS   GL153783   9.734  15.072   3.655
 4808PAPS   GL253784   9.965  15.284   3.719
 4808PAPS   C1A53785   9.707  14.955   3.997
 4808PAPS   D2A53786   9.672  15.218   4.350
 4808PAPS   D3A53787   9.828  15.125   4.790
 4808PAPS   D4A53788   9.853  15.187   5.201
 4808PAPS   C5A53789  10.229  15.417   5.347
 4808PAPS   C1B53790  10.062  15.337   4.123
 4808PAPS   C2B53791  10.023  15.574   4.536
 4808PAPS   C3B53792   9.901  15.641   5.031
 4808PAPS   C4B53793   9.621  16.007   5.226
 4809PAPS   CNO53794   1.209  11.948   4.003
 4809PAPS   PO453795   1.268  11.557   4.016
 4809PAPS   GL153796   1.448  11.542   4.348
 4809PAPS   GL253797   1.263  11.353   4.408
 4809PAPS   C1A53798   1.432  11.786   4.595
 4809PAPS   D2A53799   1.381  11.909   4.961
 4809PAPS   D3A53800   1.561  12.257   5.297
 4809PAPS   D4A53801   1.499  12.679   5.472
 4809PAPS   C5A53802   1.254  13.106   5.673
 4809PAPS   C1B53803   1.408  11.262   4.815
 4809PAPS   C2B53804   1.294  11.532   5.287
 4809PAPS   C3B53805   0.866  11.620   5.449
 4809PAPS   C4B53806   0.447  11.460   5.227
 4810PAPS   CNO53807  16.375  25.824   3.071
 4810PAPS   PO453808  16.325  25.903   3.441
 4810PAPS   GL153809  16.230  25.670   3.794
 4810PAPS   GL253810  15.996  25.609   3.692
 4810PAPS   C1A53811  16.425  25.570   4.113
 4810PAPS   D2A53812  16.608  25.391   4.358
 4810PAPS   D3A53813  16.818  25.725   4.610
 4810PAPS   D4A53814  16.475  26.024   4.502
 4810PAPS   C5A53815  16.081  26.220   4.527
 4810PAPS   C1B53816  15.586  25.684   3.903
 4810PAPS   C2B53817  15.143  25.555   4.156
 4810PAPS   C3B53818  15.090  25.502   4.607
 4810PAPS   C4B53819  15.205  25.608   5.019
 4811PAPS   CNO53820   8.895  30.189   2.606
 4811PAPS   PO453821   8.612  30.021   2.735
 4811PAPS   GL153822   8.504  30.101   3.168
 4811PAPS   GL253823   8.358  29.869   3.207
 4811PAPS   C1A53824   8.494  30.411   3.371
 4811PAPS   D2A53825   8.236  30.681   3.582
 4811PAPS   D3A53826   8.690  30.869   3.794
 4811PAPS   D4A53827   8.979  30.658   4.051
 4811PAPS   C5A53828   8.988  30.576   4.508
 4811PAPS   C1B53829   8.305  29.609   3.567
 4811PAPS   C2B53830   8.460  29.830   4.031
 4811PAPS   C3B53831   8.467  29.875   4.501
 4811PAPS   C4B53832   8.695  30.213   4.757
 4812PAPS   CNO53833  26.563  25.323   3.177
 4812PAPS   PO453834  26.227  25.143   3.115
 4812PAPS   GL153835  26.114  25.001   3.485
 4812PAPS   GL253836  26.279  25.243   3.585
 4812PAPS   C1A53837  26.180  24.691   3.699
 4812PAPS   D2A53838  26.370  24.668   4.034
 4812PAPS   D3A53839  26.355  24.600   4.512
 4812PAPS   D4A53840  26.286  24.727   4.951
 4812PAPS   C5A53841  26.071  25.118   5.125
 4812PAPS   C1B53842  26.473  25.358   4.039
 4812PAPS   C2B53843  26.584  25.646   4.492
 4812PAPS   C3B53844  26.936  25.866   4.770
 4812PAPS   C4B53845  27.204  26.223   5.033
 4813PAPS   CNO53846  33.574  34.236   3.101
 4813PAPS   PO453847  33.482  34.578   3.212
 4813PAPS   GL153848  33.584  34.499   3.594
 4813PAPS   GL253849  33.443  34.153   3.525
 4813PAPS   C1A53850  33.617  34.685   3.913
 4813PAPS   D2A53851  33.960  34.824   4.053
 4813PAPS   D3A53852  33.942  34.544   4.403
 4813PAPS   D4A53853  34.130  34.397   4.798
 4813PAPS   C5A53854  34.551  34.247   4.951
 4813PAPS   C1B53855  33.449  34.265   3.966
 4813PAPS   C2B53856  33.431  34.278   4.482
 4813PAPS   C3B53857  33.434  34.478   4.887
 4813PAPS   C4B53858  33.771  34.716   5.057
 4814PAPS   CNO53859  14.454   1.520   2.864
 4814PAPS   PO453860  14.581   1.455   3.233
 4814PAPS   GL153861  14.492   1.224   3.588
 4814PAPS   GL253862  14.789   1.221   3.623
 4814PAPS   C1A53863  14.547   1.104   3.904
 4814PAPS   D2A53864  14.442   0.703   3.862
 4814PAPS   D3A53865  14.360   0.532   4.277
 4814PAPS   D4A53866  14.506   0.178   4.003
 4814PAPS   C5A53867  14.555  -0.169   4.296
 4814PAPS   C1B53868  14.884   1.257   4.016
 4814PAPS   C2B53869  14.772   1.328   4.514
 4814PAPS   C3B53870  14.812   1.320   4.993
 4814PAPS   C4B53871  14.888   0.958   5.349
 4815PAPS   CNO53872  16.728  20.873   3.817
 4815PAPS   PO453873  16.758  20.946   4.182
 4815PAPS   GL153874  16.570  20.608   4.395
 4815PAPS   GL253875  16.817  20.553   4.520
 4815PAPS   C1A53876  16.219  20.721   4.537
 4815PAPS   D2A53877  16.090  20.878   4.910
 4815PAPS   D3A53878  15.792  20.769   5.324
 4815PAPS   D4A53879  15.753  20.912   5.706
 4815PAPS   C5A53880  16.002  20.616   6.061
 4815PAPS   C1B53881  17.092  20.801   4.781
 4815PAPS   C2B53882  17.247  21.154   5.148
 4815PAPS   C3B53883  17.380  21.565   5.387
 4815PAPS   C4B53884  17.639  21.791   5.665
 4816PAPS   CNO53885  31.281  12.661   3.140
 4816PAPS   PO453886  31.313  13.035   3.206
 4816PAPS   GL153887  31.222  13.216   3.579
 4816PAPS   GL253888  31.468  13.318   3.653
 4816PAPS   C1A53889  31.224  13.058   3.889
 4816PAPS   D2A53890  31.186  12.880   4.196
 4816PAPS   D3A53891  30.887  12.853   4.555
 4816PAPS   D4A53892  30.674  12.715   4.907
 4816PAPS   C5A53893  30.365  12.932   5.289
 4816PAPS   C1B53894  31.610  13.177   4.075
 4816PAPS   C2B53895  31.908  13.034   4.498
 4816PAPS   C3B53896  32.018  12.915   4.903
 4816PAPS   C4B53897  32.107  12.641   5.290
 4817PAPS   CNO53898   9.300  25.219   2.511
 4817PAPS   PO453899   9.575  25.006   2.725
 4817PAPS   GL153900   9.664  25.269   3.093
 4817PAPS   GL253901   9.861  25.106   3.058
 4817PAPS   C1A53902   9.418  25.281   3.430
 4817PAPS   D2A53903   9.126  25.016   3.417
 4817PAPS   D3A53904   9.065  24.920   3.836
 4817PAPS   D4A53905   9.199  25.052   4.261
 4817PAPS   C5A53906   9.619  25.157   4.375
 4817PAPS   C1B53907   9.900  25.264   3.417
 4817PAPS   C2B53908   9.971  25.090   3.851
 4817PAPS   C3B53909   9.894  24.650   4.101
 4817PAPS   C4B53910   9.796  24.200   4.241
 4818PAPS   CNO53911  30.548  29.349   2.842
 4818PAPS   PO453912  30.188  29.492   2.977
 4818PAPS   GL153913  30.146  29.437   3.422
 4818PAPS   GL253914  29.933  29.619   3.529
 4818PAPS   C1A53915  30.120  29.139   3.626
 4818PAPS   D2A53916  30.006  28.997   4.004
 4818PAPS   D3A53917  29.681  29.064   4.419
 4818PAPS   D4A53918  29.675  29.141   4.851
 4818PAPS   C5A53919  30.020  28.899   5.133
 4818PAPS   C1B53920  30.021  29.959   3.680
 4818PAPS   C2B53921  30.006  30.013   4.197
 4818PAPS   C3B53922  30.168  29.912   4.631
 4818PAPS   C4B53923  30.387  29.788   5.084
 4819PAPS   CNO53924   9.353  26.196   2.471
 4819PAPS   PO453925   9.312  26.056   2.832
 4819PAPS   GL153926   9.468  26.211   3.195
 4819PAPS   GL253927   9.762  26.100   3.164
 4819PAPS   C1A53928   9.315  26.476   3.411
 4819PAPS   D2A53929   9.276  26.880   3.364
 4819PAPS   D3A53930   9.330  26.921   3.824
 4819PAPS   D4A53931   9.430  27.102   4.168
 4819PAPS   C5A53932   9.291  26.879   4.530
 4819PAPS   C1B53933   9.683  25.675   3.299
 4819PAPS   C2B53934  10.112  25.712   3.518
 4819PAPS   C3B53935  10.370  25.594   3.912
 4819PAPS   C4B53936  10.130  25.715   4.328
 4820PAPS   CNO53937  14.201  19.389   3.195
 4820PAPS   PO453938  14.008  19.203   3.505
 4820PAPS   GL153939  13.869  19.384   3.905
 4820PAPS   GL253940  14.082  19.558   3.975
 4820PAPS   C1A53941  13.676  19.201   4.182
 4820PAPS   D2A53942  13.608  18.933   4.431
 4820PAPS   D3A53943  13.432  19.180   4.703
 4820PAPS   D4A53944  13.490  18.975   5.099
 4820PAPS   C5A53945  13.576  18.472   5.214
 4820PAPS   C1B53946  14.580  19.442   4.143
 4820PAPS   C2B53947  15.082  19.299   4.300
 4820PAPS   C3B53948  15.577  19.326   4.445
 4820PAPS   C4B53949  16.093  19.367   4.462
 4821PAPS   CNO53950  10.144   5.733   2.769
 4821PAPS   PO453951  10.397   5.754   3.061
 4821PAPS   GL153952  10.317   5.660   3.470
 4821PAPS   GL253953  10.564   5.723   3.503
 4821PAPS   C1A53954  10.202   5.444   3.711
 4821PAPS   D2A53955  10.075   5.092   3.856
 4821PAPS   D3A53956   9.727   4.841   4.089
 4821PAPS   D4A53957   9.832   5.110   4.453
 4821PAPS   C5A53958  10.115   5.028   4.899
 4821PAPS   C1B53959  10.723   5.678   3.947
 4821PAPS   C2B53960  10.724   5.672   4.466
 4821PAPS   C3B53961  10.531   5.687   4.933
 4821PAPS   C4B53962  10.422   5.685   5.409
 4822PAPS   CNO53963  21.467   2.283   3.076
 4822PAPS   PO453964  21.657   2.595   3.114
 4822PAPS   GL153965  21.674   2.642   3.518
 4822PAPS   GL253966  21.505   2.588   3.588
 4822PAPS   C1A53967  21.904   2.956   3.619
 4822PAPS   D2A53968  22.200   3.001   3.874
 4822PAPS   D3A53969  22.305   2.770   4.205
 4822PAPS   D4A53970  22.485   2.563   4.571
 4822PAPS   C5A53971  22.708   2.471   5.007
 4822PAPS   C1B53972  21.320   2.302   3.928
 4822PAPS   C2B53973  20.987   2.494   4.281
 4822PAPS   C3B53974  20.638   2.483   4.678
 4822PAPS   C4B53975  20.691   2.708   5.140
 4823PAPS   CNO53976  31.811   7.201   2.946
 4823PAPS   PO453977  31.626   7.536   3.036
 4823PAPS   GL153978  31.734   7.597   3.445
 4823PAPS   GL253979  32.092   7.608   3.413
 4823PAPS   C1A53980  31.713   7.396   3.697
 4823PAPS   D2A53981  31.890   7.078   3.823
 4823PAPS   D3A53982  31.912   6.649   4.034
 4823PAPS   D4A53983  32.209   6.550   4.303
 4823PAPS   C5A53984  32.241   6.085   4.179
 4823PAPS   C1B53985  32.112   7.809   3.799
 4823PAPS   C2B53986  31.896   8.113   4.167
 4823PAPS   C3B53987  31.809   8.349   4.536
 4823PAPS   C4B53988  31.860   8.807   4.854
 4824PAPS   CNO53989  24.706   1.342   3.118
 4824PAPS   PO453990  24.662   1.586   3.407
 4824PAPS   GL153991  24.587   1.594   3.852
 4824PAPS   GL253992  24.777   1.818   3.805
 4824PAPS   C1A53993  24.335   1.402   4.131
 4824PAPS   D2A53994  23.963   1.252   4.033
 4824PAPS   D3A53995  23.952   1.321   4.431
 4824PAPS   D4A53996  24.083   1.480   4.803
 4824PAPS   C5A53997  23.788   1.596   5.076
 4824PAPS   C1B53998  24.817   2.120   4.061
 4824PAPS   C2B53999  24.875   2.133   4.529
 4824PAPS   C3B54000  25.197   2.042   4.897
 4824PAPS   C4B54001  25.425   1.912   5.295
 4825PAPS   CNO54002   7.198  23.929   2.840
 4825PAPS   PO454003   7.406  24.136   3.092
 4825PAPS   GL154004   7.496  24.184   3.541
 4825PAPS   GL254005   7.541  23.896   3.541
 4825PAPS   C1A54006   7.846  24.321   3.687
 4825PAPS   D2A54007   8.250  24.303   3.792
 4825PAPS   D3A54008   8.623  24.038   3.707
 4825PAPS   D4A54009   8.525  23.724   4.046
 4825PAPS   C5A54010   8.505  23.720   4.509
 4825PAPS   C1B54011   7.531  23.675   3.912
 4825PAPS   C2B54012   7.624  23.586   4.423
 4825PAPS   C3B54013   7.570  23.365   4.820
 4825PAPS   C4B54014   7.439  23.140   5.241
 4826PAPS   CNO54015  32.366  14.875   3.380
 4826PAPS   PO454016  32.098  14.708   3.578
 4826PAPS   GL154017  32.030  14.374   3.907
 4826PAPS   GL254018  32.189  14.521   4.022
 4826PAPS   C1A54019  31.803  14.308   4.186
 4826PAPS   D2A54020  31.759  14.190   4.577
 4826PAPS   D3A54021  31.632  14.226   5.000
 4826PAPS   D4A54022  31.297  14.029   5.217
 4826PAPS   C5A54023  30.913  13.758   5.137
 4826PAPS   C1B54024  32.166  14.498   4.449
 4826PAPS   C2B54025  32.189  14.048   4.805
 4826PAPS   C3B54026  32.477  13.815   5.052
 4826PAPS   C4B54027  32.899  13.638   5.331
 4827PAPS   CNO54028  20.101   8.550   3.644
 4827PAPS   PO454029  20.198   8.280   3.348
 4827PAPS   GL154030  20.430   8.080   3.624
 4827PAPS   GL254031  20.532   8.329   3.745
 4827PAPS   C1A54032  20.519   7.669   3.705
 4827PAPS   D2A54033  20.730   7.273   3.766
 4827PAPS   D3A54034  21.000   7.532   3.991
 4827PAPS   D4A54035  21.032   7.578   4.429
 4827PAPS   C5A54036  21.148   7.611   4.878
 4827PAPS   C1B54037  20.398   8.239   4.199
 4827PAPS   C2B54038  20.378   8.125   4.696
 4827PAPS   C3B54039  20.226   8.152   5.193
 4827PAPS   C4B54040  20.284   8.113   5.668
 4828PAPS   CNO54041  31.232  35.872   3.106
 4828PAPS   PO454042  31.596  35.821   3.204
 4828PAPS   GL154043  31.498  35.758   3.566
 4828PAPS   GL254044  31.570  35.903   3.801
 4828PAPS   C1A54045  31.218  35.598   3.703
 4828PAPS   D2A54046  31.051  35.288   3.785
 4828PAPS   D3A54047  30.753  35.280   4.087
 4828PAPS   D4A54048  30.653  35.088   4.455
 4828PAPS   C5A54049  30.507  35.063   4.856
 4828PAPS   C1B54050  31.315  35.818   4.182
 4828PAPS   C2B54051  31.297  35.738   4.740
 4828PAPS   C3B54052  31.497  35.914   5.188
 4828PAPS   C4B54053  31.683  35.648   5.554
 4829PAPS   CNO54054  14.494  25.332   2.872
 4829PAPS   PO454055  14.707  25.378   3.209
 4829PAPS   GL154056  14.605  25.076   3.513
 4829PAPS   GL254057  14.776  25.220   3.641
 4829PAPS   C1A54058  14.308  25.148   3.642
 4829PAPS   D2A54059  14.054  25.154   3.948
 4829PAPS   D3A54060  14.227  25.148   4.272
 4829PAPS   D4A54061  14.234  24.966   4.766
 4829PAPS   C5A54062  14.462  24.722   5.137
 4829PAPS   C1B54063  14.831  25.211   4.138
 4829PAPS   C2B54064  14.706  25.168   4.624
 4829PAPS   C3B54065  14.848  25.167   5.101
 4829PAPS   C4B54066  14.658  24.990   5.545
 4830PAPS   CNO54067  28.739  22.173   2.862
 4830PAPS   PO454068  28.992  22.445   2.824
 4830PAPS   GL154069  29.152  22.244   3.129
 4830PAPS   GL254070  29.235  22.368   3.328
 4830PAPS   C1A54071  29.331  21.922   3.159
 4830PAPS   D2A54072  29.374  21.558   3.239
 4830PAPS   D3A54073  29.126  21.576   3.589
 4830PAPS   D4A54074  28.876  21.815   3.838
 4830PAPS   C5A54075  28.781  21.682   4.307
 4830PAPS   C1B54076  29.507  22.127   3.620
 4830PAPS   C2B54077  29.697  22.042   4.133
 4830PAPS   C3B54078  29.801  22.029   4.582
 4830PAPS   C4B54079  29.991  22.082   5.008
 4831PAPS   CNO54080  35.996  21.793   3.577
 4831PAPS   PO454081  36.353  21.719   3.642
 4831PAPS   GL154082  36.405  21.648   4.069
 4831PAPS   GL254083  36.653  21.779   4.036
 4831PAPS   C1A54084  36.258  21.870   4.346
 4831PAPS   D2A54085  36.178  22.101   4.682
 4831PAPS   D3A54086  36.357  22.099   5.130
 4831PAPS   D4A54087  36.380  21.791   5.502
 4831PAPS   C5A54088  36.719  21.608   5.758
 4831PAPS   C1B54089  36.974  21.676   4.307
 4831PAPS   C2B54090  37.306  21.604   4.625
 4831PAPS   C3B54091  37.388  21.445   5.087
 4831PAPS   C4B54092  37.529  21.619   5.536
 4832PAPS   CNO54093   5.330   2.026   3.268
 4832PAPS   PO454094   5.161   1.716   3.477
 4832PAPS   GL154095   5.415   1.708   3.798
 4832PAPS   GL254096   5.566   1.952   3.848
 4832PAPS   C1A54097   5.236   1.725   4.142
 4832PAPS   D2A54098   5.158   1.606   4.476
 4832PAPS   D3A54099   5.344   1.779   4.879
 4832PAPS   D4A54100   5.577   2.164   4.824
 4832PAPS   C5A54101   5.498   2.508   4.484
 4832PAPS   C1B54102   5.852   1.867   4.245
 4832PAPS   C2B54103   6.295   1.722   4.444
 4832PAPS   C3B54104   6.365   1.685   4.908
 4832PAPS   C4B54105   6.268   1.689   5.406
 4833PAPS   CNO54106  23.720  24.503   3.219
 4833PAPS   PO454107  23.549  24.843   3.231
 4833PAPS   GL154108  23.375  24.934   3.566
 4833PAPS   GL254109  23.167  25.142   3.561
 4833PAPS   C1A54110  23.416  24.669   3.811
 4833PAPS   D2A54111  23.816  24.750   3.736
 4833PAPS   D3A54112  24.063  24.875   4.071
 4833PAPS   D4A54113  23.906  24.824   4.390
 4833PAPS   C5A54114  23.635  24.691   4.712
 4833PAPS   C1B54115  22.947  25.302   3.947
 4833PAPS   C2B54116  22.725  25.334   4.353
 4833PAPS   C3B54117  22.457  25.399   4.719
 4833PAPS   C4B54118  22.105  25.518   5.013
 4834PAPS   CNO54119   0.535  24.704   3.736
 4834PAPS   PO454120   0.887  24.769   3.778
 4834PAPS   GL154121   0.919  24.735   4.135
 4834PAPS   GL254122   0.682  24.962   4.169
 4834PAPS   C1A54123   1.151  24.803   4.445
 4834PAPS   D2A54124   1.180  24.950   4.817
 4834PAPS   D3A54125   1.323  25.046   5.233
 4834PAPS   D4A54126   1.582  25.412   5.423
 4834PAPS   C5A54127   1.405  25.580   5.030
 4834PAPS   C1B54128   0.590  24.974   4.664
 4834PAPS   C2B54129   0.286  24.879   5.120
 4834PAPS   C3B54130   0.002  24.732   5.448
 4834PAPS   C4B54131  -0.281  24.522   5.774
 4835PAPS   CNO54132  16.323  20.560   3.499
 4835PAPS   PO454133  15.939  20.697   3.595
 4835PAPS   GL154134  15.847  20.493   3.943
 4835PAPS   GL254135  15.536  20.463   3.951
 4835PAPS   C1A54136  15.917  20.579   4.310
 4835PAPS   D2A54137  15.742  20.764   4.626
 4835PAPS   D3A54138  15.380  20.719   4.776
 4835PAPS   D4A54139  15.378  20.501   5.169
 4835PAPS   C5A54140  14.995  20.197   5.404
 4835PAPS   C1B54141  15.316  20.137   4.183
 4835PAPS   C2B54142  15.299  19.786   4.512
 4835PAPS   C3B54143  15.002  19.472   4.722
 4835PAPS   C4B54144  14.566  19.353   4.972
 4836PAPS   CNO54145  13.526  12.295   2.987
 4836PAPS   PO454146  13.673  11.947   3.062
 4836PAPS   GL154147  13.694  11.750   3.408
 4836PAPS   GL254148  13.389  11.563   3.264
 4836PAPS   C1A54149  13.588  11.837   3.781
 4836PAPS   D2A54150  13.794  11.750   4.087
 4836PAPS   D3A54151  13.857  12.035   4.428
 4836PAPS   D4A54152  13.909  11.808   4.830
 4836PAPS   C5A54153  13.810  12.205   5.124
 4836PAPS   C1B54154  13.100  11.611   3.654
 4836PAPS   C2B54155  13.166  11.517   4.145
 4836PAPS   C3B54156  13.013  11.439   4.577
 4836PAPS   C4B54157  13.014  11.471   5.050
 4837PAPS   CNO54158   9.904  17.072   3.532
 4837PAPS   PO454159  10.004  17.184   3.900
 4837PAPS   GL154160   9.883  16.876   4.165
 4837PAPS   GL254161   9.586  16.837   4.189
 4837PAPS   C1A54162   9.995  16.776   4.482
 4837PAPS   D2A54163  10.224  16.615   4.762
 4837PAPS   D3A54164  10.458  16.651   5.182
 4837PAPS   D4A54165  10.768  16.736   5.450
 4837PAPS   C5A54166  10.831  16.505   5.880
 4837PAPS   C1B54167   9.530  16.975   4.619
 4837PAPS   C2B54168   9.391  16.974   5.080
 4837PAPS   C3B54169   9.009  17.130   5.308
 4837PAPS   C4B54170   8.632  17.310   5.592
 4838PAPS   CNO54171  19.511  17.140   3.577
 4838PAPS   PO454172  19.768  17.062   3.337
 4838PAPS   GL154173  19.990  17.029   3.721
 4838PAPS   GL254174  19.746  16.822   3.857
 4838PAPS   C1A54175  19.995  17.151   4.015
 4838PAPS   D2A54176  19.889  17.474   4.183
 4838PAPS   D3A54177  19.976  17.176   4.542
 4838PAPS   D4A54178  20.026  17.297   4.977
 4838PAPS   C5A54179  19.822  17.053   5.368
 4838PAPS   C1B54180  19.726  16.863   4.286
 4838PAPS   C2B54181  19.736  16.879   4.798
 4838PAPS   C3B54182  19.428  16.799   5.212
 4838PAPS   C4B54183  19.220  16.496   5.530
 4839PAPS   CNO54184  29.212   0.118   3.408
 4839PAPS   PO454185  29.553  -0.021   3.279
 4839PAPS   GL154186  29.678   0.027   3.668
 4839PAPS   GL254187  29.876  -0.193   3.625
 4839PAPS   C1A54188  29.412   0.000   3.864
 4839PAPS   D2A54189  29.189  -0.228   4.129
 4839PAPS   D3A54190  29.322  -0.031   4.488
 4839PAPS   D4A54191  29.380  -0.171   4.920
 4839PAPS   C5A54192  29.210  -0.378   5.314
 4839PAPS   C1B54193  30.147  -0.381   3.927
 4839PAPS   C2B54194  30.284  -0.505   4.431
 4839PAPS   C3B54195  30.266  -0.472   4.957
 4839PAPS   C4B54196  30.335  -0.017   5.037
 4840PAPS   CNO54197   3.980  19.456   3.138
 4840PAPS   PO454198   3.805  19.152   3.202
 4840PAPS   GL154199   3.727  18.960   3.687
 4840PAPS   GL254200   3.903  19.147   3.726
 4840PAPS   C1A54201   3.742  18.654   3.942
 4840PAPS   D2A54202   3.955  18.422   4.125
 4840PAPS   D3A54203   4.361  18.516   4.257
 4840PAPS   D4A54204   4.735  18.713   4.274
 4840PAPS   C5A54205   4.711  18.704   4.703
 4840PAPS   C1B54206   4.027  19.362   4.109
 4840PAPS   C2B54207   3.881  19.388   4.580
 4840PAPS   C3B54208   3.632  19.095   4.925
 4840PAPS   C4B54209   3.408  18.818   5.228
 4841PAPS   CNO54210  31.266  20.070   3.242
 4841PAPS   PO454211  31.581  19.967   3.405
 4841PAPS   GL154212  31.480  19.839   3.777
 4841PAPS   GL254213  31.521  19.607   3.769
 4841PAPS   C1A54214  31.255  19.982   4.060
 4841PAPS   D2A54215  30.865  20.065   4.163
 4841PAPS   D3A54216  30.590  19.872   4.426
 4841PAPS   D4A54217  30.980  19.637   4.437
 4841PAPS   C5A54218  30.731  19.607   3.967
 4841PAPS   C1B54219  31.262  19.457   4.120
 4841PAPS   C2B54220  31.137  19.090   4.526
 4841PAPS   C3B54221  30.740  18.853   4.742
 4841PAPS   C4B54222  30.599  18.412   4.910
 4842PAPS   CNO54223  22.096   9.154   3.086
 4842PAPS   PO454224  22.219   8.831   3.282
 4842PAPS   GL154225  22.270   8.821   3.706
 4842PAPS   GL254226  21.979   8.750   3.693
 4842PAPS   C1A54227  22.283   8.743   4.004
 4842PAPS   D2A54228  22.381   8.813   4.439
 4842PAPS   D3A54229  22.503   8.683   4.820
 4842PAPS   D4A54230  22.667   8.441   5.099
 4842PAPS   C5A54231  22.912   8.556   5.512
 4842PAPS   C1B54232  21.982   8.434   3.954
 4842PAPS   C2B54233  21.636   8.208   4.337
 4842PAPS   C3B54234  21.859   8.017   4.706
 4842PAPS   C4B54235  22.179   8.220   5.064
 4843PAPS   CNO54236   4.878  27.606   2.832
 4843PAPS   PO454237   4.741  27.812   3.121
 4843PAPS   GL154238   4.884  27.817   3.475
 4843PAPS   GL254239   4.678  28.069   3.590
 4843PAPS   C1A54240   5.018  27.580   3.728
 4843PAPS   D2A54241   5.183  27.507   4.075
 4843PAPS   D3A54242   5.127  27.953   4.247
 4843PAPS   D4A54243   5.131  28.010   3.798
 4843PAPS   C5A54244   5.072  28.409   3.575
 4843PAPS   C1B54245   4.509  28.139   3.970
 4843PAPS   C2B54246   4.501  27.967   4.389
 4843PAPS   C3B54247   4.699  27.892   4.869
 4843PAPS   C4B54248   4.834  27.743   5.254
 4844PAPS   CNO54249  21.235  31.866   3.232
 4844PAPS   PO454250  21.010  32.067   3.468
 4844PAPS   GL154251  21.169  32.249   3.821
 4844PAPS   GL254252  20.915  32.318   3.898
 4844PAPS   C1A54253  21.441  32.068   3.998
 4844PAPS   D2A54254  21.653  31.917   4.322
 4844PAPS   D3A54255  22.058  31.890   4.487
 4844PAPS   D4A54256  22.477  31.842   4.573
 4844PAPS   C5A54257  22.657  32.027   4.995
 4844PAPS   C1B54258  20.695  32.562   4.199
 4844PAPS   C2B54259  20.780  32.706   4.702
 4844PAPS   C3B54260  20.603  32.911   5.096
 4844PAPS   C4B54261  20.430  33.259   5.399
 4845PAPS   CNO54262  27.727  16.685   3.360
 4845PAPS   PO454263  27.695  17.021   3.171
 4845PAPS   GL154264  27.822  17.285   3.548
 4845PAPS   GL254265  27.590  17.459   3.475
 4845PAPS   C1A54266  27.833  17.352   3.905
 4845PAPS   D2A54267  27.775  17.458   4.280
 4845PAPS   D3A54268  27.855  17.601   4.690
 4845PAPS   D4A54269  28.226  17.563   5.016
 4845PAPS   C5A54270  28.246  17.383   5.513
 4845PAPS   C1B54271  27.433  17.764   3.753
 4845PAPS   C2B54272  27.409  17.784   4.222
 4845PAPS   C3B54273  27.457  17.891   4.624
 4845PAPS   C4B54274  27.177  17.544   4.862
 4846PAPS   CNO54275   8.453  15.424   3.506
 4846PAPS   PO454276   8.428  15.037   3.587
 4846PAPS   GL154277   8.404  14.940   3.959
 4846PAPS   GL254278   8.266  15.205   4.037
 4846PAPS   C1A54279   8.483  14.785   4.299
 4846PAPS   D2A54280   8.682  14.848   4.582
 4846PAPS   D3A54281   8.970  15.088   4.854
 4846PAPS   D4A54282   9.387  15.179   5.019
 4846PAPS   C5A54283   9.427  15.509   5.375
 4846PAPS   C1B54284   8.178  15.057   4.422
 4846PAPS   C2B54285   8.316  15.182   4.882
 4846PAPS   C3B54286   8.410  15.527   5.266
 4846PAPS   C4B54287   8.687  15.838   5.524
 4847PAPS   CNO54288   1.363  12.538   3.309
 4847PAPS   PO454289   1.627  12.348   3.549
 4847PAPS   GL154290   1.590  12.548   3.904
 4847PAPS   GL254291   1.624  12.311   4.037
 4847PAPS   C1A54292   1.861  12.709   4.089
 4847PAPS   D2A54293   1.975  13.027   4.268
 4847PAPS   D3A54294   2.351  13.088   4.582
 4847PAPS   D4A54295   2.595  12.914   4.949
 4847PAPS   C5A54296   2.911  13.263   4.934
 4847PAPS   C1B54297   1.693  12.139   4.409
 4847PAPS   C2B54298   1.882  12.180   4.906
 4847PAPS   C3B54299   2.059  12.199   5.346
 4847PAPS   C4B54300   2.373  12.283   5.694
 4848PAPS   CNO54301  28.700   9.406   3.212
 4848PAPS   PO454302  28.852   9.533   3.552
 4848PAPS   GL154303  28.726   9.376   3.922
 4848PAPS   GL254304  28.986   9.160   3.955
 4848PAPS   C1A54305  28.782   9.537   4.264
 4848PAPS   D2A54306  28.859   9.463   4.611
 4848PAPS   D3A54307  28.733   9.591   5.052
 4848PAPS   D4A54308  28.872   9.946   4.953
 4848PAPS   C5A54309  29.004  10.184   5.319
 4848PAPS   C1B54310  28.882   8.737   4.034
 4848PAPS   C2B54311  28.661   8.444   4.316
 4848PAPS   C3B54312  28.636   8.172   4.732
 4848PAPS   C4B54313  28.594   7.896   5.190
 4849PAPS   CNO54314   4.998  22.301   3.307
 4849PAPS   PO454315   5.067  22.173   3.613
 4849PAPS   GL154316   5.135  22.355   4.051
 4849PAPS   GL254317   5.266  22.000   4.025
 4849PAPS   C1A54318   5.188  22.731   3.986
 4849PAPS   D2A54319   5.460  23.078   3.985
 4849PAPS   D3A54320   5.803  23.170   4.299
 4849PAPS   D4A54321   5.538  23.414   4.545
 4849PAPS   C5A54322   5.614  23.673   4.862
 4849PAPS   C1B54323   5.153  21.711   4.363
 4849PAPS   C2B54324   4.859  21.665   4.812
 4849PAPS   C3B54325   4.763  21.647   5.300
 4849PAPS   C4B54326   4.732  21.555   5.808
 4850PAPS   CNO54327  29.520  23.162   2.913
 4850PAPS   PO454328  29.821  22.962   3.047
 4850PAPS   GL154329  30.031  22.998   3.389
 4850PAPS   GL254330  29.802  22.998   3.588
 4850PAPS   C1A54331  30.360  23.049   3.529
 4850PAPS   D2A54332  30.569  23.314   3.689
 4850PAPS   D3A54333  30.987  23.402   3.835
 4850PAPS   D4A54334  30.843  23.742   4.139
 4850PAPS   C5A54335  30.476  24.080   4.058
 4850PAPS   C1B54336  29.783  23.037   3.998
 4850PAPS   C2B54337  29.779  23.069   4.503
 4850PAPS   C3B54338  29.610  22.825   4.898
 4850PAPS   C4B54339  29.598  22.797   5.410
 4851PAPS   CNO54340   6.808   0.908   3.134
 4851PAPS   PO454341   7.082   0.719   3.346
 4851PAPS   GL154342   7.108   0.560   3.728
 4851PAPS   GL254343   7.334   0.793   3.716
 4851PAPS   C1A54344   6.901   0.462   4.067
 4851PAPS   D2A54345   6.744   0.507   4.436
 4851PAPS   D3A54346   6.508   0.249   4.661
 4851PAPS   D4A54347   6.344   0.116   5.061
 4851PAPS   C5A54348   6.607   0.114   5.461
 4851PAPS   C1B54349   7.310   0.714   4.132
 4851PAPS   C2B54350   7.403   0.824   4.634
 4851PAPS   C3B54351   7.253   0.581   5.022
 4851PAPS   C4B54352   7.212   0.377   5.504
 4852PAPS   CNO54353  32.119   4.437   2.943
 4852PAPS   PO454354  32.121   4.342   3.309
 4852PAPS   GL154355  32.331   4.465   3.651
 4852PAPS   GL254356  32.183   4.702   3.686
 4852PAPS   C1A54357  32.347   4.435   4.048
 4852PAPS   D2A54358  32.317   4.355   4.446
 4852PAPS   D3A54359  32.499   4.390   4.914
 4852PAPS   D4A54360  32.904   4.476   5.175
 4852PAPS   C5A54361  32.663   4.880   5.072
 4852PAPS   C1B54362  32.006   4.714   4.113
 4852PAPS   C2B54363  31.946   4.671   4.599
 4852PAPS   C3B54364  32.141   4.596   5.094
 4852PAPS   C4B54365  32.267   4.330   5.384
 4853PAPS   CNO54366  21.686  10.891   3.144
 4853PAPS   PO454367  21.888  10.646   3.351
 4853PAPS   GL154368  21.724  10.509   3.723
 4853PAPS   GL254369  21.895  10.408   3.901
 4853PAPS   C1A54370  21.461  10.429   3.932
 4853PAPS   D2A54371  21.170  10.403   4.223
 4853PAPS   D3A54372  21.411  10.441   4.637
 4853PAPS   D4A54373  21.339  10.614   5.038
 4853PAPS   C5A54374  20.915  10.812   5.086
 4853PAPS   C1B54375  21.800  10.492   4.282
 4853PAPS   C2B54376  21.846  10.768   4.753
 4853PAPS   C3B54377  22.158  10.838   5.120
 4853PAPS   C4B54378  22.470  11.012   5.489
 4854PAPS   CNO54379  29.855  10.413   2.901
 4854PAPS   PO454380  29.923  10.514   3.216
 4854PAPS   GL154381  29.940  10.313   3.692
 4854PAPS   GL254382  29.908  10.604   3.748
 4854PAPS   C1A54383  30.140  10.171   3.966
 4854PAPS   D2A54384  30.336   9.945   4.205
 4854PAPS   D3A54385  30.258   9.943   4.603
 4854PAPS   D4A54386  29.933  10.061   4.903
 4854PAPS   C5A54387  29.858  10.139   5.346
 4854PAPS   C1B54388  29.595  10.631   4.102
 4854PAPS   C2B54389  29.499  10.520   4.644
 4854PAPS   C3B54390  29.399  10.251   5.021
 4854PAPS   C4B54391  29.443   9.769   5.254
 4855PAPS   CNO54392  34.535  13.999   3.305
 4855PAPS   PO454393  34.312  13.721   3.497
 4855PAPS   GL154394  34.448  13.771   3.950
 4855PAPS   GL254395  34.591  13.580   3.843
 4855PAPS   C1A54396  34.206  13.704   4.212
 4855PAPS   D2A54397  34.054  13.629   4.616
 4855PAPS   D3A54398  34.399  13.700   4.871
 4855PAPS   D4A54399  34.307  13.821   5.293
 4855PAPS   C5A54400  33.947  13.607   5.558
 4855PAPS   C1B54401  34.766  13.301   4.038
 4855PAPS   C2B54402  34.580  12.948   4.333
 4855PAPS   C3B54403  34.165  12.626   4.290
 4855PAPS   C4B54404  33.881  12.262   4.373
 4856PAPS   CNO54405  16.801  18.857   3.378
 4856PAPS   PO454406  16.588  19.035   3.661
 4856PAPS   GL154407  16.587  18.845   3.978
 4856PAPS   GL254408  16.810  18.683   3.962
 4856PAPS   C1A54409  16.413  18.671   4.286
 4856PAPS   D2A54410  16.383  18.921   4.609
 4856PAPS   D3A54411  16.523  18.934   4.988
 4856PAPS   D4A54412  16.479  18.949   5.418
 4856PAPS   C5A54413  16.466  18.710   5.866
 4856PAPS   C1B54414  17.013  18.753   4.333
 4856PAPS   C2B54415  17.032  18.756   4.824
 4856PAPS   C3B54416  16.944  18.846   5.304
 4856PAPS   C4B54417  16.929  18.952   5.799
 4857PAPS   CNO54418  29.244  20.678   3.090
 4857PAPS   PO454419  29.153  20.315   3.167
 4857PAPS   GL154420  28.925  20.263   3.516
 4857PAPS   GL254421  29.012  20.001   3.487
 4857PAPS   C1A54422  28.952  20.272   3.910
 4857PAPS   D2A54423  29.073  20.009   4.256
 4857PAPS   D3A54424  28.787  19.804   4.552
 4857PAPS   D4A54425  28.502  19.726   4.877
 4857PAPS   C5A54426  28.139  19.972   4.993
 4857PAPS   C1B54427  29.237  19.792   3.856
 4857PAPS   C2B54428  29.278  19.532   4.253
 4857PAPS   C3B54429  29.224  19.333   4.727
 4857PAPS   C4B54430  28.923  19.100   5.120
 4858PAPS   CNO54431  14.772   6.123   3.221
 4858PAPS   PO454432  14.578   6.297   3.504
 4858PAPS   GL154433  14.906   6.361   3.835
 4858PAPS   GL254434  14.694   6.324   4.050
 4858PAPS   C1A54435  15.127   6.611   3.875
 4858PAPS   D2A54436  15.510   6.661   4.032
 4858PAPS   D3A54437  15.907   6.734   3.846
 4858PAPS   D4A54438  16.302   6.894   3.937
 4858PAPS   C5A54439  16.541   6.832   4.374
 4858PAPS   C1B54440  14.798   6.327   4.460
 4858PAPS   C2B54441  14.904   6.428   4.972
 4858PAPS   C3B54442  14.707   6.601   5.371
 4858PAPS   C4B54443  14.436   6.629   5.778
 4859PAPS   CNO54444  30.907   5.537   3.003
 4859PAPS   PO454445  30.975   5.402   3.357
 4859PAPS   GL154446  30.721   5.465   3.687
 4859PAPS   GL254447  30.725   5.718   3.808
 4859PAPS   C1A54448  30.684   5.268   4.038
 4859PAPS   D2A54449  30.842   4.988   4.314
 4859PAPS   D3A54450  30.527   5.024   4.611
 4859PAPS   D4A54451  30.301   4.725   4.803
 4859PAPS   C5A54452  30.120   4.788   5.250
 4859PAPS   C1B54453  30.798   5.720   4.268
 4859PAPS   C2B54454  30.774   5.883   4.771
 4859PAPS   C3B54455  31.019   5.933   5.176
 4859PAPS   C4B54456  31.332   5.710   5.430
 4860PAPS   CNO54457  22.795  15.737   3.414
 4860PAPS   PO454458  22.953  15.411   3.509
 4860PAPS   GL154459  22.967  15.361   3.895
 4860PAPS   GL254460  23.198  15.390   4.037
 4860PAPS   C1A54461  22.855  15.222   4.177
 4860PAPS   D2A54462  22.560  15.294   4.444
 4860PAPS   D3A54463  22.231  15.336   4.798
 4860PAPS   D4A54464  22.004  15.186   5.185
 4860PAPS   C5A54465  21.677  15.549   5.344
 4860PAPS   C1B54466  23.176  15.580   4.375
 4860PAPS   C2B54467  23.060  15.897   4.733
 4860PAPS   C3B54468  22.785  15.896   5.169
 4860PAPS   C4B54469  22.800  15.722   5.642
 4861PAPS   CNO54470  17.630  32.413   3.106
 4861PAPS   PO454471  17.852  32.562   3.340
 4861PAPS   GL154472  17.788  32.695   3.703
 4861PAPS   GL254473  18.052  32.713   3.885
 4861PAPS   C1A54474  17.567  32.662   4.051
 4861PAPS   D2A54475  17.245  32.613   4.248
 4861PAPS   D3A54476  16.974  32.547   4.598
 4861PAPS   D4A54477  16.589  32.593   4.825
 4861PAPS   C5A54478  16.646  33.089   4.985
 4861PAPS   C1B54479  18.243  32.408   4.099
 4861PAPS   C2B54480  18.450  32.099   4.373
 4861PAPS   C3B54481  18.623  31.658   4.526
 4861PAPS   C4B54482  19.059  31.422   4.680
 4862PAPS   CNO54483   6.435  27.436   2.771
 4862PAPS   PO454484   6.380  27.501   3.164
 4862PAPS   GL154485   6.461  27.117   3.463
 4862PAPS   GL254486   6.781  27.239   3.475
 4862PAPS   C1A54487   6.538  27.029   3.824
 4862PAPS   D2A54488   6.698  26.808   4.109
 4862PAPS   D3A54489   6.925  26.499   4.383
 4862PAPS   D4A54490   7.124  26.175   4.506
 4862PAPS   C5A54491   7.047  26.336   4.940
 4862PAPS   C1B54492   7.139  27.305   3.597
 4862PAPS   C2B54493   7.378  27.576   3.905
 4862PAPS   C3B54494   7.454  28.002   4.192
 4862PAPS   C4B54495   7.203  28.294   4.501
 4863PAPS   CNO54496  30.816   0.630   2.898
 4863PAPS   PO454497  30.963   0.390   3.134
 4863PAPS   GL154498  30.637   0.320   3.438
 4863PAPS   GL254499  30.625   0.005   3.410
 4863PAPS   C1A54500  30.717   0.518   3.779
 4863PAPS   D2A54501  30.419   0.352   4.060
 4863PAPS   D3A54502  30.195   0.405   4.449
 4863PAPS   D4A54503  30.137   0.427   4.854
 4863PAPS   C5A54504  29.881   0.729   5.081
 4863PAPS   C1B54505  30.389  -0.040   3.795
 4863PAPS   C2B54506  30.101  -0.045   4.254
 4863PAPS   C3B54507  29.971  -0.055   4.691
 4863PAPS   C4B54508  29.891  -0.132   5.156
 4864PAPS   CNO54509   7.549  28.240   3.295
 4864PAPS   PO454510   7.437  27.928   3.080
 4864PAPS   GL154511   7.427  27.610   3.359
 4864PAPS   GL254512   7.125  27.684   3.388
 4864PAPS   C1A54513   7.566  27.296   3.532
 4864PAPS   D2A54514   7.590  26.947   3.427
 4864PAPS   D3A54515   7.619  26.522   3.472
 4864PAPS   D4A54516   7.302  26.524   3.755
 4864PAPS   C5A54517   7.454  26.435   4.192
 4864PAPS   C1B54518   6.933  27.634   3.821
 4864PAPS   C2B54519   7.019  27.771   4.341
 4864PAPS   C3B54520   7.092  27.785   4.808
 4864PAPS   C4B54521   7.355  27.669   5.239
 4865PAPS   CNO54522  34.559  24.685   3.315
 4865PAPS   PO454523  34.540  24.431   3.566
 4865PAPS   GL154524  34.374  24.478   3.974
 4865PAPS   GL254525  34.412  24.213   4.033
 4865PAPS   C1A54526  34.536  24.605   4.252
 4865PAPS   D2A54527  34.664  24.823   4.586
 4865PAPS   D3A54528  35.099  24.824   4.678
 4865PAPS   D4A54529  35.537  24.866   4.428
 4865PAPS   C5A54530  35.879  24.563   4.238
 4865PAPS   C1B54531  34.589  24.075   4.311
 4865PAPS   C2B54532  34.866  23.891   4.780
 4865PAPS   C3B54533  35.010  23.720   5.215
 4865PAPS   C4B54534  35.177  23.727   5.644
 4866PAPS   CNO54535   6.806  30.529   2.746
 4866PAPS   PO454536   6.850  30.823   3.050
 4866PAPS   GL154537   6.821  30.689   3.388
 4866PAPS   GL254538   6.631  30.593   3.517
 4866PAPS   C1A54539   7.140  30.685   3.578
 4866PAPS   D2A54540   7.302  30.835   3.958
 4866PAPS   D3A54541   7.058  31.124   4.196
 4866PAPS   D4A54542   6.828  31.184   4.562
 4866PAPS   C5A54543   6.871  31.606   4.833
 4866PAPS   C1B54544   6.280  30.744   3.648
 4866PAPS   C2B54545   6.079  31.063   3.959
 4866PAPS   C3B54546   6.036  31.167   4.450
 4866PAPS   C4B54547   5.951  31.169   4.955
 4867PAPS   CNO54548   7.667  12.223   2.931
 4867PAPS   PO454549   7.757  12.613   2.945
 4867PAPS   GL154550   7.818  12.582   3.346
 4867PAPS   GL254551   7.980  12.350   3.297
 4867PAPS   C1A54552   7.677  12.728   3.687
 4867PAPS   D2A54553   7.741  13.109   3.845
 4867PAPS   D3A54554   7.707  12.770   4.226
 4867PAPS   D4A54555   7.672  12.716   4.636
 4867PAPS   C5A54556   7.746  12.325   4.879
 4867PAPS   C1B54557   8.016  12.373   3.714
 4867PAPS   C2B54558   8.198  12.083   4.101
 4867PAPS   C3B54559   8.318  11.666   4.159
 4867PAPS   C4B54560   8.332  11.201   4.127
 4868PAPS   CNO54561  15.335   1.544   2.892
 4868PAPS   PO454562  15.646   1.410   3.057
 4868PAPS   GL154563  15.531   1.424   3.424
 4868PAPS   GL254564  15.489   1.174   3.462
 4868PAPS   C1A54565  15.738   1.688   3.655
 4868PAPS   D2A54566  15.929   1.907   3.915
 4868PAPS   D3A54567  15.794   1.721   4.322
 4868PAPS   D4A54568  15.656   1.411   4.577
 4868PAPS   C5A54569  15.864   1.615   4.942
 4868PAPS   C1B54570  15.412   1.091   3.871
 4868PAPS   C2B54571  15.250   1.099   4.372
 4868PAPS   C3B54572  15.200   1.064   4.859
 4868PAPS   C4B54573  15.176   0.552   5.015
 4869PAPS   CNO54574   7.380  23.514   3.046
 4869PAPS   PO454575   7.673  23.428   3.316
 4869PAPS   GL154576   7.808  23.123   3.603
 4869PAPS   GL254577   8.089  23.096   3.516
 4869PAPS   C1A54578   7.849  23.177   3.948
 4869PAPS   D2A54579   7.972  23.316   4.266
 4869PAPS   D3A54580   8.443  23.200   4.211
 4869PAPS   D4A54581   8.690  22.870   4.230
 4869PAPS   C5A54582   8.445  22.439   4.163
 4869PAPS   C1B54583   8.373  22.885   3.805
 4869PAPS   C2B54584   8.794  22.526   3.801
 4869PAPS   C3B54585   8.980  22.326   4.224
 4869PAPS   C4B54586   8.678  22.293   4.577
 4870PAPS   CNO54587   8.216  17.686   3.154
 4870PAPS   PO454588   7.944  17.929   3.138
 4870PAPS   GL154589   7.988  18.050   3.533
 4870PAPS   GL254590   7.949  17.776   3.538
 4870PAPS   C1A54591   7.686  18.145   3.764
 4870PAPS   D2A54592   7.388  18.157   3.980
 4870PAPS   D3A54593   7.685  18.036   4.301
 4870PAPS   D4A54594   8.015  18.190   4.539
 4870PAPS   C5A54595   8.070  18.547   4.855
 4870PAPS   C1B54596   8.037  17.564   3.940
 4870PAPS   C2B54597   8.006  17.663   4.452
 4870PAPS   C3B54598   7.836  17.868   4.821
 4870PAPS   C4B54599   8.029  18.115   5.152
 4871PAPS   CNO54600  10.409   4.530   2.832
 4871PAPS   PO454601  10.560   4.785   3.079
 4871PAPS   GL154602  10.743   4.690   3.555
 4871PAPS   GL254603  10.788   4.875   3.592
 4871PAPS   C1A54604  10.746   4.694   3.945
 4871PAPS   D2A54605  10.987   4.554   4.221
 4871PAPS   D3A54606  11.115   4.476   4.634
 4871PAPS   D4A54607  10.761   4.291   4.898
 4871PAPS   C5A54608  10.876   4.175   5.310
 4871PAPS   C1B54609  10.571   5.105   3.799
 4871PAPS   C2B54610  10.308   5.393   4.193
 4871PAPS   C3B54611  10.094   5.517   4.631
 4871PAPS   C4B54612   9.997   5.664   5.100
 4872PAPS   CNO54613  29.019  33.444   2.519
 4872PAPS   PO454614  28.807  33.423   2.845
 4872PAPS   GL154615  28.747  33.215   3.135
 4872PAPS   GL254616  28.534  32.949   3.088
 4872PAPS   C1A54617  28.866  33.202   3.474
 4872PAPS   D2A54618  29.063  33.024   3.791
 4872PAPS   D3A54619  28.963  33.156   4.257
 4872PAPS   D4A54620  28.800  33.491   4.600
 4872PAPS   C5A54621  28.710  33.258   5.000
 4872PAPS   C1B54622  28.501  32.947   3.534
 4872PAPS   C2B54623  28.555  33.102   3.995
 4872PAPS   C3B54624  28.378  33.307   4.407
 4872PAPS   C4B54625  28.054  33.338   4.833
 4873PAPS   CNO54626  22.577  19.858   3.370
 4873PAPS   PO454627  22.855  20.086   3.518
 4873PAPS   GL154628  22.805  20.338   3.859
 4873PAPS   GL254629  22.969  20.559   3.844
 4873PAPS   C1A54630  22.739  20.291   4.237
 4873PAPS   D2A54631  22.734  20.544   4.544
 4873PAPS   D3A54632  22.606  20.316   4.914
 4873PAPS   D4A54633  22.873  20.598   5.141
 4873PAPS   C5A54634  23.032  20.802   5.566
 4873PAPS   C1B54635  23.146  20.470   4.265
 4873PAPS   C2B54636  23.453  20.418   4.649
 4873PAPS   C3B54637  23.761  20.286   4.966
 4873PAPS   C4B54638  24.125  19.928   5.134
 4874PAPS   CNO54639  20.970  22.248   3.806
 4874PAPS   PO454640  21.164  21.938   3.896
 4874PAPS   GL154641  21.322  21.816   4.178
 4874PAPS   GL254642  21.554  21.708   4.274
 4874PAPS   C1A54643  21.212  21.980   4.494
 4874PAPS   D2A54644  21.264  21.749   4.881
 4874PAPS   D3A54645  21.237  21.439   5.227
 4874PAPS   D4A54646  21.271  21.844   5.476
 4874PAPS   C5A54647  21.353  22.370   5.451
 4874PAPS   C1B54648  21.716  21.830   4.614
 4874PAPS   C2B54649  22.024  21.611   4.833
 4874PAPS   C3B54650  22.073  21.218   5.143
 4874PAPS   C4B54651  21.855  20.890   5.453
 4875PAPS   CNO54652  16.681  30.756   2.985
 4875PAPS   PO454653  16.348  30.560   3.108
 4875PAPS   GL154654  16.051  30.672   3.355
 4875PAPS   GL254655  16.140  30.438   3.545
 4875PAPS   C1A54656  15.784  30.938   3.371
 4875PAPS   D2A54657  15.685  31.304   3.468
 4875PAPS   D3A54658  15.578  31.498   3.878
 4875PAPS   D4A54659  15.494  31.637   4.294
 4875PAPS   C5A54660  15.979  31.614   4.200
 4875PAPS   C1B54661  15.974  30.484   3.930
 4875PAPS   C2B54662  15.980  30.585   4.468
 4875PAPS   C3B54663  16.034  30.671   4.950
 4875PAPS   C4B54664  15.890  30.386   5.326
 4876PAPS   CNO54665  30.060  21.974   2.803
 4876PAPS   PO454666  30.325  21.937   3.057
 4876PAPS   GL154667  30.163  21.720   3.423
 4876PAPS   GL254668  30.355  21.936   3.513
 4876PAPS   C1A54669  29.894  21.856   3.664
 4876PAPS   D2A54670  29.599  21.622   3.721
 4876PAPS   D3A54671  29.313  21.746   4.030
 4876PAPS   D4A54672  29.142  22.171   4.233
 4876PAPS   C5A54673  29.058  22.235   4.706
 4876PAPS   C1B54674  30.160  22.123   3.934
 4876PAPS   C2B54675  30.204  22.366   4.397
 4876PAPS   C3B54676  29.923  22.618   4.670
 4876PAPS   C4B54677  29.972  22.602   5.149
 4877PAPS   CNO54678  18.845  20.377   3.310
 4877PAPS   PO454679  18.912  20.655   3.546
 4877PAPS   GL154680  18.951  20.467   3.888
 4877PAPS   GL254681  18.758  20.613   3.975
 4877PAPS   C1A54682  19.183  20.309   4.126
 4877PAPS   D2A54683  19.445  20.158   4.355
 4877PAPS   D3A54684  19.870  20.218   4.384
 4877PAPS   D4A54685  20.075  20.619   4.276
 4877PAPS   C5A54686  20.401  20.799   4.560
 4877PAPS   C1B54687  18.666  20.675   4.411
 4877PAPS   C2B54688  18.543  20.636   4.893
 4877PAPS   C3B54689  18.500  20.644   5.371
 4877PAPS   C4B54690  18.653  20.423   5.774
 4878PAPS   CNO54691   2.919   4.132   2.999
 4878PAPS   PO454692   2.610   3.911   3.073
 4878PAPS   GL154693   2.534   3.898   3.404
 4878PAPS   GL254694   2.337   4.086   3.474
 4878PAPS   C1A54695   2.708   3.809   3.737
 4878PAPS   D2A54696   2.793   3.754   4.101
 4878PAPS   D3A54697   2.739   3.757   4.518
 4878PAPS   D4A54698   2.687   3.552   4.961
 4878PAPS   C5A54699   2.461   3.214   5.229
 4878PAPS   C1B54700   2.275   4.108   3.862
 4878PAPS   C2B54701   2.324   4.535   4.170
 4878PAPS   C3B54702   2.324   4.610   4.641
 4878PAPS   C4B54703   2.500   4.520   5.111
 4879PAPS   CNO54704  15.876   2.568   3.259
 4879PAPS   PO454705  15.752   2.896   3.348
 4879PAPS   GL154706  15.543   3.071   3.683
 4879PAPS   GL254707  15.302   3.095   3.633
 4879PAPS   C1A54708  15.475   2.899   3.998
 4879PAPS   D2A54709  15.142   2.800   4.209
 4879PAPS   D3A54710  15.079   2.909   4.629
 4879PAPS   D4A54711  14.934   2.524   4.847
 4879PAPS   C5A54712  15.197   2.222   5.058
 4879PAPS   C1B54713  15.194   3.299   3.965
 4879PAPS   C2B54714  15.146   3.527   4.432
 4879PAPS   C3B54715  15.221   3.453   4.945
 4879PAPS   C4B54716  15.507   3.230   5.327
 4880PAPS   CNO54717  34.497  33.640   3.510
 4880PAPS   PO454718  34.294  33.929   3.578
 4880PAPS   GL154719  34.338  33.786   4.046
 4880PAPS   GL254720  34.131  34.085   4.057
 4880PAPS   C1A54721  34.656  33.841   4.238
 4880PAPS   D2A54722  34.739  33.842   4.625
 4880PAPS   D3A54723  35.127  33.923   4.733
 4880PAPS   D4A54724  35.205  34.148   5.106
 4880PAPS   C5A54725  34.834  34.172   5.376
 4880PAPS   C1B54726  33.866  34.054   4.379
 4880PAPS   C2B54727  33.700  33.810   4.796
 4880PAPS   C3B54728  33.260  33.656   5.043
 4880PAPS   C4B54729  32.922  33.561   5.364
 4881PAPS   CNO54730   9.848  23.048   2.431
 4881PAPS   PO454731   9.782  22.843   2.758
 4881PAPS   GL154732   9.675  22.844   3.150
 4881PAPS   GL254733   9.543  22.591   3.148
 4881PAPS   C1A54734   9.632  23.172   3.353
 4881PAPS   D2A54735   9.811  23.341   3.642
 4881PAPS   D3A54736   9.676  23.025   3.951
 4881PAPS   D4A54737   9.855  22.835   4.315
 4881PAPS   C5A54738  10.189  23.014   4.667
 4881PAPS   C1B54739   9.461  22.641   3.549
 4881PAPS   C2B54740   9.213  22.804   3.963
 4881PAPS   C3B54741   9.350  23.107   4.308
 4881PAPS   C4B54742   9.464  23.056   4.788
 4882PAPS   CNO54743  19.457   4.641   3.083
 4882PAPS   PO454744  19.227   4.637   3.400
 4882PAPS   GL154745  19.304   4.747   3.785
 4882PAPS   GL254746  19.054   4.870   3.915
 4882PAPS   C1A54747  19.519   5.021   3.953
 4882PAPS   D2A54748  19.645   5.287   4.178
 4882PAPS   D3A54749  19.767   5.416   4.553
 4882PAPS   D4A54750  19.814   5.456   4.982
 4882PAPS   C5A54751  20.259   5.349   4.832
 4882PAPS   C1B54752  19.090   4.887   4.366
 4882PAPS   C2B54753  19.063   5.061   4.827
 4882PAPS   C3B54754  19.011   5.156   5.351
 4882PAPS   C4B54755  18.621   4.841   5.450
 4883PAPS   CNO54756  32.308  18.601   3.668
 4883PAPS   PO454757  32.472  18.945   3.592
 4883PAPS   GL154758  32.508  19.092   3.969
 4883PAPS   GL254759  32.327  19.296   4.009
 4883PAPS   C1A54760  32.446  18.851   4.218
 4883PAPS   D2A54761  32.295  18.781   4.620
 4883PAPS   D3A54762  32.031  18.486   4.788
 4883PAPS   D4A54763  31.900  18.303   4.392
 4883PAPS   C5A54764  32.368  18.372   4.292
 4883PAPS   C1B54765  32.438  19.458   4.456
 4883PAPS   C2B54766  32.550  19.586   4.947
 4883PAPS   C3B54767  32.825  19.676   5.336
 4883PAPS   C4B54768  33.179  19.897   5.552
 4884PAPS   CNO54769  11.894  28.203   2.542
 4884PAPS   PO454770  11.701  27.922   2.667
 4884PAPS   GL154771  11.382  28.042   3.010
 4884PAPS   GL254772  11.633  27.792   3.100
 4884PAPS   C1A54773  11.288  28.099   3.412
 4884PAPS   D2A54774  11.143  28.366   3.762
 4884PAPS   D3A54775  11.024  28.078   4.143
 4884PAPS   D4A54776  10.766  27.855   4.369
 4884PAPS   C5A54777  10.480  28.005   4.748
 4884PAPS   C1B54778  11.622  27.795   3.520
 4884PAPS   C2B54779  11.527  27.987   4.009
 4884PAPS   C3B54780  11.373  28.123   4.406
 4884PAPS   C4B54781  11.597  27.891   4.785
 4885PAPS   CNO54782   7.658  22.427   3.330
 4885PAPS   PO454783   7.977  22.593   3.402
 4885PAPS   GL154784   7.997  22.760   3.833
 4885PAPS   GL254785   7.941  22.487   3.890
 4885PAPS   C1A54786   8.137  22.760   4.183
 4885PAPS   D2A54787   8.319  22.790   4.517
 4885PAPS   D3A54788   8.194  22.396   4.767
 4885PAPS   D4A54789   7.844  22.310   4.982
 4885PAPS   C5A54790   7.773  22.159   5.458
 4885PAPS   C1B54791   7.897  22.405   4.318
 4885PAPS   C2B54792   7.691  22.094   4.544
 4885PAPS   C3B54793   7.316  22.175   4.868
 4885PAPS   C4B54794   6.924  22.221   5.113
 4886PAPS   CNO54795   3.172  29.026   2.833
 4886PAPS   PO454796   3.268  29.282   3.071
 4886PAPS   GL154797   3.206  29.110   3.467
 4886PAPS   GL254798   3.114  29.305   3.621
 4886PAPS   C1A54799   3.474  28.919   3.706
 4886PAPS   D2A54800   3.852  28.994   3.754
 4886PAPS   D3A54801   4.092  28.652   3.980
 4886PAPS   D4A54802   3.711  28.482   3.907
 4886PAPS   C5A54803   3.311  28.691   4.085
 4886PAPS   C1B54804   3.181  29.185   4.003
 4886PAPS   C2B54805   3.245  29.079   4.533
 4886PAPS   C3B54806   3.363  29.009   4.992
 4886PAPS   C4B54807   3.290  29.287   5.405
 4887PAPS   CNO54808  14.875  27.706   2.964
 4887PAPS   PO454809  14.691  27.454   3.225
 4887PAPS   GL154810  14.786  27.141   3.514
 4887PAPS   GL254811  14.739  27.418   3.716
 4887PAPS   C1A54812  14.512  26.912   3.484
 4887PAPS   D2A54813  14.284  26.631   3.623
 4887PAPS   D3A54814  14.158  26.723   4.052
 4887PAPS   D4A54815  14.158  26.776   4.506
 4887PAPS   C5A54816  14.465  26.751   4.789
 4887PAPS   C1B54817  14.471  27.585   3.972
 4887PAPS   C2B54818  14.340  27.684   4.407
 4887PAPS   C3B54819  14.132  27.598   4.828
 4887PAPS   C4B54820  13.949  27.581   5.309
 4888PAPS   CNO54821  19.517  25.913   3.554
 4888PAPS   PO454822  19.345  25.717   3.833
 4888PAPS   GL154823  19.536  25.643   4.235
 4888PAPS   GL254824  19.313  25.475   4.224
 4888PAPS   C1A54825  19.401  25.824   4.483
 4888PAPS   D2A54826  19.313  26.055   4.811
 4888PAPS   D3A54827  19.215  25.874   5.201
 4888PAPS   D4A54828  19.532  25.854   5.515
 4888PAPS   C5A54829  19.331  26.162   5.824
 4888PAPS   C1B54830  19.089  25.541   4.541
 4888PAPS   C2B54831  19.110  25.332   5.058
 4888PAPS   C3B54832  19.315  25.418   5.430
 4888PAPS   C4B54833  19.420  25.393   5.918
 4889PAPS   CNO54834  12.653  10.463   3.365
 4889PAPS   PO454835  12.315  10.286   3.284
 4889PAPS   GL154836  12.254  10.106   3.674
 4889PAPS   GL254837  12.273  10.392   3.757
 4889PAPS   C1A54838  12.463   9.817   3.883
 4889PAPS   D2A54839  12.730   9.511   3.899
 4889PAPS   D3A54840  12.752   9.029   3.653
 4889PAPS   D4A54841  12.390   9.183   3.625
 4889PAPS   C5A54842  12.123   9.570   3.796
 4889PAPS   C1B54843  12.380  10.510   4.194
 4889PAPS   C2B54844  12.316  10.625   4.689
 4889PAPS   C3B54845  12.353  10.963   5.024
 4889PAPS   C4B54846  12.552  11.371   5.276
 4890PAPS   CNO54847  31.274  25.846   3.077
 4890PAPS   PO454848  31.506  25.752   3.371
 4890PAPS   GL154849  31.430  25.800   3.690
 4890PAPS   GL254850  31.368  25.536   3.781
 4890PAPS   C1A54851  31.302  26.037   4.008
 4890PAPS   D2A54852  31.207  26.328   4.246
 4890PAPS   D3A54853  31.002  26.430   4.640
 4890PAPS   D4A54854  30.670  26.774   4.500
 4890PAPS   C5A54855  31.015  27.057   4.514
 4890PAPS   C1B54856  31.176  25.609   4.173
 4890PAPS   C2B54857  31.206  25.433   4.721
 4890PAPS   C3B54858  31.230  25.168   5.123
 4890PAPS   C4B54859  31.228  25.086   5.600
 4891PAPS   CNO54860  14.027   6.290   3.457
 4891PAPS   PO454861  14.091   5.940   3.588
 4891PAPS   GL154862  13.844   6.163   3.912
 4891PAPS   GL254863  13.623   5.949   3.865
 4891PAPS   C1A54864  13.956   6.197   4.251
 4891PAPS   D2A54865  14.040   6.293   4.637
 4891PAPS   D3A54866  14.420   6.375   4.880
 4891PAPS   D4A54867  14.320   6.206   5.269
 4891PAPS   C5A54868  14.136   5.736   5.422
 4891PAPS   C1B54869  13.230   5.977   4.165
 4891PAPS   C2B54870  13.098   5.864   4.666
 4891PAPS   C3B54871  12.819   5.655   5.026
 4891PAPS   C4B54872  12.523   5.452   5.333
 4892PAPS   CNO54873   6.082  14.326   3.318
 4892PAPS   PO454874   6.211  14.340   3.664
 4892PAPS   GL154875   5.976  14.144   3.960
 4892PAPS   GL254876   5.764  14.362   4.027
 4892PAPS   C1A54877   6.096  14.217   4.300
 4892PAPS   D2A54878   6.406  14.174   4.423
 4892PAPS   D3A54879   6.516  13.843   4.221
 4892PAPS   D4A54880   6.118  13.708   4.212
 4892PAPS   C5A54881   5.742  13.951   4.280
 4892PAPS   C1B54882   5.953  14.607   4.411
 4892PAPS   C2B54883   5.914  14.847   4.817
 4892PAPS   C3B54884   5.975  15.245   5.190
 4892PAPS   C4B54885   6.312  15.566   5.390
 4893PAPS   CNO54886  18.791  21.936   3.390
 4893PAPS   PO454887  18.849  22.281   3.283
 4893PAPS   GL154888  18.880  22.437   3.630
 4893PAPS   GL254889  18.623  22.269   3.732
 4893PAPS   C1A54890  18.992  22.453   3.961
 4893PAPS   D2A54891  19.031  22.279   4.273
 4893PAPS   D3A54892  19.007  22.515   4.674
 4893PAPS   D4A54893  18.789  22.507   5.068
 4893PAPS   C5A54894  18.878  22.458   5.570
 4893PAPS   C1B54895  18.275  22.123   3.966
 4893PAPS   C2B54896  18.175  22.169   4.487
 4893PAPS   C3B54897  18.205  22.030   4.950
 4893PAPS   C4B54898  18.285  21.770   5.378
 4894PAPS   CNO54899   1.982   5.409   2.895
 4894PAPS   PO454900   1.717   5.189   3.018
 4894PAPS   GL154901   1.678   4.947   3.354
 4894PAPS   GL254902   1.577   5.162   3.576
 4894PAPS   C1A54903   1.902   4.751   3.594
 4894PAPS   D2A54904   2.023   4.402   3.515
 4894PAPS   D3A54905   1.694   4.318   3.835
 4894PAPS   D4A54906   1.839   4.248   4.227
 4894PAPS   C5A54907   2.197   4.145   4.498
 4894PAPS   C1B54908   1.575   5.039   3.988
 4894PAPS   C2B54909   1.514   5.020   4.501
 4894PAPS   C3B54910   1.645   4.990   4.939
 4894PAPS   C4B54911   2.033   4.744   5.089
 4895PAPS   CNO54912  23.110  27.798   3.150
 4895PAPS   PO454913  23.050  27.415   3.189
 4895PAPS   GL154914  23.122  27.359   3.596
 4895PAPS   GL254915  22.997  27.522   3.749
 4895PAPS   C1A54916  23.481  27.269   3.735
 4895PAPS   D2A54917  23.667  27.195   4.143
 4895PAPS   D3A54918  24.182  27.183   4.183
 4895PAPS   D4A54919  24.110  27.165   4.587
 4895PAPS   C5A54920  24.366  27.441   4.875
 4895PAPS   C1B54921  23.196  27.323   4.110
 4895PAPS   C2B54922  23.491  27.254   4.614
 4895PAPS   C3B54923  23.740  27.221   5.005
 4895PAPS   C4B54924  24.134  26.878   5.068
 4896PAPS   CNO54925  18.794   9.782   3.717
 4896PAPS   PO454926  19.133   9.650   3.587
 4896PAPS   GL154927  19.075   9.425   3.921
 4896PAPS   GL254928  18.787   9.299   3.874
 4896PAPS   C1A54929  19.282   9.287   4.158
 4896PAPS   D2A54930  19.252   9.375   4.530
 4896PAPS   D3A54931  19.503   9.261   4.855
 4896PAPS   D4A54932  19.584   9.128   5.328
 4896PAPS   C5A54933  19.592   8.803   5.615
 4896PAPS   C1B54934  18.704   9.214   4.223
 4896PAPS   C2B54935  18.266   9.019   4.454
 4896PAPS   C3B54936  18.065   8.873   4.889
 4896PAPS   C4B54937  17.846   8.682   5.284
 4897PAPS   CNO54938   2.365  17.580   3.353
 4897PAPS   PO454939   2.481  17.965   3.348
 4897PAPS   GL154940   2.590  18.104   3.745
 4897PAPS   GL254941   2.792  17.815   3.761
 4897PAPS   C1A54942   2.641  18.482   3.924
 4897PAPS   D2A54943   2.881  18.641   4.154
 4897PAPS   D3A54944   2.988  18.398   4.529
 4897PAPS   D4A54945   2.934  18.372   4.946
 4897PAPS   C5A54946   3.279  18.288   5.133
 4897PAPS   C1B54947   2.637  17.520   3.977
 4897PAPS   C2B54948   2.761  17.466   4.509
 4897PAPS   C3B54949   2.878  17.239   4.874
 4897PAPS   C4B54950   2.883  16.806   5.103
 4898PAPS   CNO54951  23.319  31.954   3.043
 4898PAPS   PO454952  23.322  32.041   3.428
 4898PAPS   GL154953  23.529  31.760   3.747
 4898PAPS   GL254954  23.294  31.894   3.842
 4898PAPS   C1A54955  23.828  31.790   4.020
 4898PAPS   D2A54956  24.075  31.918   4.327
 4898PAPS   D3A54957  24.080  31.921   4.772
 4898PAPS   D4A54958  24.404  32.094   5.027
 4898PAPS   C5A54959  24.575  31.639   4.965
 4898PAPS   C1B54960  23.293  32.198   4.129
 4898PAPS   C2B54961  23.072  32.444   4.612
 4898PAPS   C3B54962  23.172  32.813   5.002
 4898PAPS   C4B54963  23.568  33.153   5.072
 4899PAPS   CNO54964  27.309  19.221   2.538
 4899PAPS   PO454965  27.048  19.176   2.811
 4899PAPS   GL154966  27.090  19.361   3.094
 4899PAPS   GL254967  27.252  19.354   3.338
 4899PAPS   C1A54968  26.844  19.609   3.340
 4899PAPS   D2A54969  26.685  19.681   3.720
 4899PAPS   D3A54970  26.585  19.695   4.178
 4899PAPS   D4A54971  26.408  19.518   4.576
 4899PAPS   C5A54972  26.587  19.369   4.972
 4899PAPS   C1B54973  27.359  19.361   3.792
 4899PAPS   C2B54974  27.579  19.704   4.146
 4899PAPS   C3B54975  27.720  19.764   4.601
 4899PAPS   C4B54976  27.779  19.599   5.040
 4900PAPS   CNO54977  24.755  19.404   3.344
 4900PAPS   PO454978  25.020  19.108   3.354
 4900PAPS   GL154979  25.165  19.112   3.630
 4900PAPS   GL254980  25.106  18.838   3.767
 4900PAPS   C1A54981  25.474  19.281   3.703
 4900PAPS   D2A54982  25.706  19.527   3.907
 4900PAPS   D3A54983  25.295  19.660   4.067
 4900PAPS   D4A54984  25.116  19.243   4.097
 4900PAPS   C5A54985  25.529  19.268   4.364
 4900PAPS   C1B54986  25.513  18.779   3.830
 4900PAPS   C2B54987  25.725  18.333   3.906
 4900PAPS   C3B54988  25.888  17.950   4.166
 4900PAPS   C4B54989  26.003  17.542   4.451
 4901PAPS   CNO54990  31.377  10.209   3.513
 4901PAPS   PO454991  31.755  10.358   3.506
 4901PAPS   GL154992  32.059  10.325   3.746
 4901PAPS   GL254993  32.215  10.540   3.871
 4901PAPS   C1A54994  32.188  10.113   4.005
 4901PAPS   D2A54995  32.278  10.019   4.359
 4901PAPS   D3A54996  32.103   9.927   4.689
 4901PAPS   D4A54997  32.444  10.120   4.966
 4901PAPS   C5A54998  32.708  10.382   5.294
 4901PAPS   C1B54999  32.503  10.406   4.204
 4901PAPS   C2B55000  32.746  10.160   4.614
 4901PAPS   C3B55001  32.983   9.792   4.779
 4901PAPS   C4B55002  33.078   9.401   5.023
 4902PAPS   CNO55003  10.746  30.760   2.716
 4902PAPS   PO455004  11.015  30.571   2.912
 4902PAPS   GL155005  10.821  30.665   3.289
 4902PAPS   GL255006  10.738  30.445   3.320
 4902PAPS   C1A55007  10.881  30.770   3.643
 4902PAPS   D2A55008  10.841  30.572   3.967
 4902PAPS   D3A55009  10.643  30.271   4.159
 4902PAPS   D4A55010  10.463  30.281   4.548
 4902PAPS   C5A55011  10.462  29.992   5.001
 4902PAPS   C1B55012  10.799  30.181   3.708
 4902PAPS   C2B55013  11.101  29.844   4.074
 4902PAPS   C3B55014  11.421  29.687   4.429
 4902PAPS   C4B55015  11.422  29.378   4.821
 4903PAPS   CNO55016  13.881   5.094   3.172
 4903PAPS   PO455017  13.689   4.983   3.486
 4903PAPS   GL155018  14.024   5.176   3.887
 4903PAPS   GL255019  13.760   5.266   3.906
 4903PAPS   C1A55020  14.110   5.225   4.219
 4903PAPS   D2A55021  14.058   5.553   4.540
 4903PAPS   D3A55022  14.174   5.425   4.948
 4903PAPS   D4A55023  14.192   5.863   4.958
 4903PAPS   C5A55024  14.344   5.923   4.541
 4903PAPS   C1B55025  13.880   5.574   4.153
 4903PAPS   C2B55026  13.608   5.885   4.388
 4903PAPS   C3B55027  13.538   6.087   4.810
 4903PAPS   C4B55028  13.425   6.322   5.234
 4904PAPS   CNO55029   3.417   3.943   3.249
 4904PAPS   PO455030   3.475   3.623   3.431
 4904PAPS   GL155031   3.522   3.739   3.855
 4904PAPS   GL255032   3.208   3.637   3.883
 4904PAPS   C1A55033   3.558   3.908   4.171
 4904PAPS   D2A55034   3.668   3.706   4.462
 4904PAPS   D3A55035   3.846   3.731   4.893
 4904PAPS   D4A55036   3.541   4.117   5.009
 4904PAPS   C5A55037   3.569   4.169   4.569
 4904PAPS   C1B55038   3.194   3.740   4.338
 4904PAPS   C2B55039   3.114   3.913   4.767
 4904PAPS   C3B55040   3.100   4.230   5.146
 4904PAPS   C4B55041   3.022   4.508   5.502
 4905PAPS   CNO55042   4.336  20.926   3.509
 4905PAPS   PO455043   4.125  21.044   3.845
 4905PAPS   GL155044   4.199  20.889   4.230
 4905PAPS   GL255045   3.987  20.747   4.335
 4905PAPS   C1A55046   4.309  21.022   4.596
 4905PAPS   D2A55047   4.448  21.373   4.710
 4905PAPS   D3A55048   4.817  21.158   4.980
 4905PAPS   D4A55049   5.028  20.746   5.054
 4905PAPS   C5A55050   4.864  20.649   5.482
 4905PAPS   C1B55051   3.905  20.418   4.623
 4905PAPS   C2B55052   4.244  20.705   4.883
 4905PAPS   C3B55053   4.349  21.095   5.110
 4905PAPS   C4B55054   4.337  21.431   5.480
 4906PAPS   CNO55055   1.023  25.669   4.034
 4906PAPS   PO455056   0.662  25.629   3.918
 4906PAPS   GL155057   0.310  25.600   4.181
 4906PAPS   GL255058   0.363  25.281   4.163
 4906PAPS   C1A55059  -0.016  25.681   4.290
 4906PAPS   D2A55060  -0.350  25.909   4.401
 4906PAPS   D3A55061  -0.414  26.298   4.631
 4906PAPS   D4A55062  -0.558  26.525   4.989
 4906PAPS   C5A55063  -0.280  26.667   5.344
 4906PAPS   C1B55064   0.110  25.044   4.459
 4906PAPS   C2B55065  -0.169  24.733   4.805
 4906PAPS   C3B55066  -0.568  24.868   5.056
 4906PAPS   C4B55067  -0.815  25.003   5.454
 4907PAPS   CNO55068  22.104  16.362   3.168
 4907PAPS   PO455069  22.255  16.502   3.484
 4907PAPS   GL155070  22.069  16.308   3.803
 4907PAPS   GL255071  22.307  16.415   3.884
 4907PAPS   C1A55072  21.996  16.159   4.150
 4907PAPS   D2A55073  22.023  15.768   4.058
 4907PAPS   D3A55074  21.938  15.751   4.502
 4907PAPS   D4A55075  21.792  15.760   4.899
 4907PAPS   C5A55076  21.304  15.657   5.023
 4907PAPS   C1B55077  22.584  16.420   4.190
 4907PAPS   C2B55078  22.541  16.348   4.725
 4907PAPS   C3B55079  22.414  16.272   5.168
 4907PAPS   C4B55080  22.318  16.170   5.653
 4908PAPS   CNO55081  14.125  35.231   3.088
 4908PAPS   PO455082  14.337  35.531   3.320
 4908PAPS   GL155083  14.508  35.310   3.526
 4908PAPS   GL255084  14.813  35.177   3.534
 4908PAPS   C1A55085  14.379  35.107   3.857
 4908PAPS   D2A55086  14.264  35.231   4.234
 4908PAPS   D3A55087  14.148  35.642   4.307
 4908PAPS   D4A55088  13.865  35.580   4.624
 4908PAPS   C5A55089  14.171  35.294   4.717
 4908PAPS   C1B55090  14.794  35.115   3.959
 4908PAPS   C2B55091  14.718  35.404   4.424
 4908PAPS   C3B55092  14.428  35.687   4.720
 4908PAPS   C4B55093  14.464  36.104   5.019
 4909PAPS   CNO55094  34.276  14.894   3.203
 4909PAPS   PO455095  34.089  15.010   3.497
 4909PAPS   GL155096  34.201  15.101   3.858
 4909PAPS   GL255097  34.059  14.942   4.115
 4909PAPS   C1A55098  34.275  15.406   4.123
 4909PAPS   D2A55099  34.217  15.468   4.486
 4909PAPS   D3A55100  34.158  15.788   4.768
 4909PAPS   D4A55101  34.113  15.838   5.245
 4909PAPS   C5A55102  34.184  15.828   5.709
 4909PAPS   C1B55103  34.057  14.966   4.534
 4909PAPS   C2B55104  34.068  15.246   4.992
 4909PAPS   C3B55105  34.119  15.157   5.429
 4909PAPS   C4B55106  33.961  14.965   5.818
 4910PAPS   CNO55107  35.632  33.554   3.120
 4910PAPS   PO455108  35.407  33.540   3.438
 4910PAPS   GL155109  35.607  33.738   3.737
 4910PAPS   GL255110  35.434  33.856   3.825
 4910PAPS   C1A55111  35.820  33.667   3.996
 4910PAPS   D2A55112  35.818  34.036   4.049
 4910PAPS   D3A55113  35.539  34.388   3.964
 4910PAPS   D4A55114  35.133  34.373   4.126
 4910PAPS   C5A55115  35.047  34.396   4.633
 4910PAPS   C1B55116  35.430  34.043   4.257
 4910PAPS   C2B55117  35.562  34.255   4.670
 4910PAPS   C3B55118  35.656  34.364   5.120
 4910PAPS   C4B55119  35.933  34.691   5.445
 4911PAPS   CNO55120  17.249  12.000   3.344
 4911PAPS   PO455121  16.917  11.925   3.240
 4911PAPS   GL155122  16.921  12.043   3.624
 4911PAPS   GL255123  17.083  12.264   3.685
 4911PAPS   C1A55124  16.946  11.877   3.906
 4911PAPS   D2A55125  16.589  11.651   3.885
 4911PAPS   D3A55126  16.403  11.377   4.336
 4911PAPS   D4A55127  16.417  11.563   4.739
 4911PAPS   C5A55128  16.532  11.353   5.098
 4911PAPS   C1B55129  17.397  12.322   4.044
 4911PAPS   C2B55130  17.283  12.451   4.578
 4911PAPS   C3B55131  17.338  12.135   4.843
 4911PAPS   C4B55132  17.319  11.754   5.208
 4912PAPS   CNO55133  16.149  28.605   3.205
 4912PAPS   PO455134  16.456  28.525   3.396
 4912PAPS   GL155135  16.487  28.681   3.827
 4912PAPS   GL255136  16.711  28.428   3.861
 4912PAPS   C1A55137  16.148  28.719   3.968
 4912PAPS   D2A55138  15.946  28.751   4.254
 4912PAPS   D3A55139  15.889  28.831   4.707
 4912PAPS   D4A55140  15.910  28.817   5.134
 4912PAPS   C5A55141  15.652  28.502   5.400
 4912PAPS   C1B55142  16.784  28.532   4.331
 4912PAPS   C2B55143  16.862  28.594   4.792
 4912PAPS   C3B55144  16.821  28.591   5.228
 4912PAPS   C4B55145  16.539  28.501   5.541
 4913PAPS   CNO55146  11.729  34.879   3.135
 4913PAPS   PO455147  11.786  35.136   3.351
 4913PAPS   GL155148  11.540  35.239   3.701
 4913PAPS   GL255149  11.746  35.271   3.799
 4913PAPS   C1A55150  11.275  35.375   3.872
 4913PAPS   D2A55151  11.054  35.574   4.142
 4913PAPS   D3A55152  10.942  35.396   4.590
 4913PAPS   D4A55153  10.823  34.976   4.660
 4913PAPS   C5A55154  10.722  35.073   5.155
 4913PAPS   C1B55155  11.690  34.939   4.071
 4913PAPS   C2B55156  11.799  34.815   4.608
 4913PAPS   C3B55157  11.928  34.725   5.002
 4913PAPS   C4B55158  12.145  34.528   5.434
 4914PAPS   CNO55159  34.864  30.033   3.342
 4914PAPS   PO455160  35.084  30.212   3.612
 4914PAPS   GL155161  35.207  30.026   3.890
 4914PAPS   GL255162  35.479  30.166   3.921
 4914PAPS   C1A55163  35.159  30.020   4.220
 4914PAPS   D2A55164  35.022  30.270   4.524
 4914PAPS   D3A55165  35.418  30.424   4.753
 4914PAPS   D4A55166  35.808  30.625   4.934
 4914PAPS   C5A55167  35.747  31.055   5.176
 4914PAPS   C1B55168  35.762  29.846   4.094
 4914PAPS   C2B55169  36.102  29.864   4.456
 4914PAPS   C3B55170  36.454  29.821   4.748
 4914PAPS   C4B55171  36.530  29.670   5.177
 4915PAPS   CNO55172  35.194  30.612   4.085
 4915PAPS   PO455173  34.958  30.903   4.224
 4915PAPS   GL155174  35.066  30.919   4.629
 4915PAPS   GL255175  34.972  31.199   4.646
 4915PAPS   C1A55176  35.001  30.603   4.834
 4915PAPS   D2A55177  35.139  30.348   5.176
 4915PAPS   D3A55178  35.426  30.662   5.395
 4915PAPS   D4A55179  35.299  30.488   5.729
 4915PAPS   C5A55180  34.867  30.433   5.675
 4915PAPS   C1B55181  34.648  31.326   4.871
 4915PAPS   C2B55182  34.215  31.283   5.184
 4915PAPS   C3B55183  34.271  31.031   5.640
 4915PAPS   C4B55184  34.079  30.651   5.809
 4916PAPS   CNO55185   4.102  24.499   3.766
 4916PAPS   PO455186   4.122  24.144   3.712
 4916PAPS   GL155187   3.979  23.848   4.034
 4916PAPS   GL255188   3.902  24.140   4.187
 4916PAPS   C1A55189   4.261  23.606   4.156
 4916PAPS   D2A55190   4.573  23.340   4.246
 4916PAPS   D3A55191   4.728  23.215   4.650
 4916PAPS   D4A55192   4.980  23.418   4.898
 4916PAPS   C5A55193   5.167  23.849   5.073
 4916PAPS   C1B55194   4.038  24.598   4.262
 4916PAPS   C2B55195   4.321  24.719   4.640
 4916PAPS   C3B55196   4.651  24.481   4.916
 4916PAPS   C4B55197   4.895  24.482   5.346
 4917PAPS   CNO55198  35.389  19.299   3.406
 4917PAPS   PO455199  35.457  19.553   3.695
 4917PAPS   GL155200  35.684  19.526   4.009
 4917PAPS   GL255201  35.576  19.843   4.121
 4917PAPS   C1A55202  35.538  19.326   4.216
 4917PAPS   D2A55203  35.322  19.042   4.344
 4917PAPS   D3A55204  34.976  18.982   4.679
 4917PAPS   D4A55205  35.036  18.682   5.078
 4917PAPS   C5A55206  35.429  18.723   5.444
 4917PAPS   C1B55207  35.523  19.724   4.559
 4917PAPS   C2B55208  35.595  19.825   5.057
 4917PAPS   C3B55209  35.674  19.634   5.508
 4917PAPS   C4B55210  35.751  19.479   5.996
 4918PAPS   CNO55211  23.533  33.203   3.076
 4918PAPS   PO455212  23.137  33.199   3.123
 4918PAPS   GL155213  23.221  33.185   3.561
 4918PAPS   GL255214  23.523  33.219   3.530
 4918PAPS   C1A55215  23.259  33.279   3.918
 4918PAPS   D2A55216  23.122  33.371   4.304
 4918PAPS   D3A55217  23.176  33.194   4.686
 4918PAPS   D4A55218  23.166  33.404   5.083
 4918PAPS   C5A55219  22.712  33.637   5.041
 4918PAPS   C1B55220  23.693  33.279   3.937
 4918PAPS   C2B55221  23.651  32.997   4.383
 4918PAPS   C3B55222  23.567  32.670   4.737
 4918PAPS   C4B55223  23.324  32.341   5.024
 4919PAPS   CNO55224   7.672   5.171   3.592
 4919PAPS   PO455225   7.301   5.138   3.503
 4919PAPS   GL155226   7.264   5.105   3.914
 4919PAPS   GL255227   7.248   4.802   3.899
 4919PAPS   C1A55228   7.515   5.007   4.111
 4919PAPS   D2A55229   7.744   4.876   4.406
 4919PAPS   D3A55230   8.031   4.516   4.305
 4919PAPS   D4A55231   8.486   4.385   4.364
 4919PAPS   C5A55232   8.813   4.710   4.248
 4919PAPS   C1B55233   7.265   4.707   4.264
 4919PAPS   C2B55234   6.971   4.545   4.687
 4919PAPS   C3B55235   7.050   4.398   5.160
 4919PAPS   C4B55236   6.981   4.451   5.665
 4920PAPS   CNO55237  26.237  29.019   3.099
 4920PAPS   PO455238  26.356  28.650   3.091
 4920PAPS   GL155239  26.577  28.701   3.400
 4920PAPS   GL255240  26.801  28.530   3.426
 4920PAPS   C1A55241  26.792  29.010   3.533
 4920PAPS   D2A55242  26.926  29.324   3.708
 4920PAPS   D3A55243  26.795  29.242   4.093
 4920PAPS   D4A55244  26.764  29.290   4.531
 4920PAPS   C5A55245  27.113  29.338   4.890
 4920PAPS   C1B55246  26.708  28.531   3.896
 4920PAPS   C2B55247  26.595  28.389   4.408
 4920PAPS   C3B55248  26.324  28.168   4.794
 4920PAPS   C4B55249  26.091  28.222   5.206
 4921PAPS   CNO55250  23.718   5.017   2.881
 4921PAPS   PO455251  23.975   4.860   3.138
 4921PAPS   GL155252  23.984   4.723   3.578
 4921PAPS   GL255253  23.811   4.516   3.520
 4921PAPS   C1A55254  23.865   4.719   3.891
 4921PAPS   D2A55255  23.564   4.685   4.132
 4921PAPS   D3A55256  23.428   4.860   4.481
 4921PAPS   D4A55257  23.347   4.781   4.943
 4921PAPS   C5A55258  23.563   4.906   5.332
 4921PAPS   C1B55259  23.756   4.286   3.890
 4921PAPS   C2B55260  23.637   4.234   4.360
 4921PAPS   C3B55261  23.495   4.203   4.890
 4921PAPS   C4B55262  23.514   3.761   5.032
 4922PAPS   CNO55263  19.769  24.575   3.886
 4922PAPS   PO455264  19.840  24.930   3.876
 4922PAPS   GL155265  19.897  25.156   4.151
 4922PAPS   GL255266  20.026  24.904   4.288
 4922PAPS   C1A55267  19.866  25.401   4.413
 4922PAPS   D2A55268  19.859  25.781   4.549
 4922PAPS   D3A55269  20.069  25.987   4.847
 4922PAPS   D4A55270  20.098  25.878   5.287
 4922PAPS   C5A55271  19.914  25.570   5.624
 4922PAPS   C1B55272  19.960  24.938   4.653
 4922PAPS   C2B55273  20.078  24.931   5.143
 4922PAPS   C3B55274  20.161  25.117   5.511
 4922PAPS   C4B55275  20.493  25.386   5.780
 4923PAPS   CNO55276  10.746   7.329   3.204
 4923PAPS   PO455277  10.630   7.133   3.490
 4923PAPS   GL155278  10.568   7.194   3.836
 4923PAPS   GL255279  10.298   7.318   3.846
 4923PAPS   C1A55280  10.634   7.161   4.152
 4923PAPS   D2A55281  10.420   7.044   4.483
 4923PAPS   D3A55282  10.078   7.235   4.709
 4923PAPS   D4A55283   9.656   7.121   4.871
 4923PAPS   C5A55284   9.437   6.724   4.710
 4923PAPS   C1B55285  10.328   7.475   4.288
 4923PAPS   C2B55286  10.539   7.501   4.799
 4923PAPS   C3B55287  10.559   7.049   5.010
 4923PAPS   C4B55288  10.433   6.798   5.369
 4924PAPS   CNO55289  19.438   0.632   3.304
 4924PAPS   PO455290  19.217   0.491   3.612
 4924PAPS   GL155291  19.342   0.476   4.019
 4924PAPS   GL255292  19.204   0.336   4.232
 4924PAPS   C1A55293  19.701   0.555   4.050
 4924PAPS   D2A55294  19.949   0.638   4.321
 4924PAPS   D3A55295  19.745   0.677   4.734
 4924PAPS   D4A55296  19.450   0.754   5.096
 4924PAPS   C5A55297  19.231   0.948   5.494
 4924PAPS   C1B55298  19.577   0.155   4.384
 4924PAPS   C2B55299  19.828   0.200   4.816
 4924PAPS   C3B55300  19.924   0.470   5.202
 4924PAPS   C4B55301  19.937   0.688   5.642
 4925PAPS   CNO55302  27.323  11.022   3.384
 4925PAPS   PO455303  27.354  10.790   3.667
 4925PAPS   GL155304  27.153  10.902   4.054
 4925PAPS   GL255305  27.281  10.718   4.229
 4925PAPS   C1A55306  27.104  11.236   4.295
 4925PAPS   D2A55307  27.190  11.556   4.515
 4925PAPS   D3A55308  26.946  11.486   4.852
 4925PAPS   D4A55309  26.870  11.608   5.190
 4925PAPS   C5A55310  27.030  11.439   5.582
 4925PAPS   C1B55311  27.037  10.354   4.372
 4925PAPS   C2B55312  26.865   9.931   4.533
 4925PAPS   C3B55313  26.810   9.666   4.926
 4925PAPS   C4B55314  26.765   9.749   5.377
 4926PAPS   CNO55315  17.968   7.754   3.742
 4926PAPS   PO455316  17.858   7.457   3.577
 4926PAPS   GL155317  17.946   7.137   3.911
 4926PAPS   GL255318  18.106   7.314   4.072
 4926PAPS   C1A55319  17.878   6.823   4.082
 4926PAPS   D2A55320  17.635   6.590   4.176
 4926PAPS   D3A55321  17.362   6.456   4.498
 4926PAPS   D4A55322  16.925   6.490   4.701
 4926PAPS   C5A55323  16.834   6.121   5.016
 4926PAPS   C1B55324  17.950   7.149   4.491
 4926PAPS   C2B55325  17.663   6.848   4.776
 4926PAPS   C3B55326  17.273   6.753   5.040
 4926PAPS   C4B55327  16.840   6.547   5.192
 4927PAPS   CNO55328  31.923  29.965   3.498
 4927PAPS   PO455329  32.303  29.963   3.490
 4927PAPS   GL155330  32.422  30.065   3.899
 4927PAPS   GL255331  32.161  29.940   3.954
 4927PAPS   C1A55332  32.515  29.810   4.152
 4927PAPS   D2A55333  32.792  29.629   4.402
 4927PAPS   D3A55334  32.907  29.370   4.736
 4927PAPS   D4A55335  32.861  29.477   5.168
 4927PAPS   C5A55336  32.883  29.149   5.534
 4927PAPS   C1B55337  32.117  29.733   4.305
 4927PAPS   C2B55338  31.838  29.764   4.803
 4927PAPS   C3B55339  31.531  29.961   5.107
 4927PAPS   C4B55340  31.454  30.277   5.481
 4928PAPS   CNO55341  35.231  32.500   4.075
 4928PAPS   PO455342  35.123  32.153   4.182
 4928PAPS   GL155343  35.229  32.077   4.441
 4928PAPS   GL255344  35.473  31.905   4.529
 4928PAPS   C1A55345  35.104  31.974   4.800
 4928PAPS   D2A55346  34.944  31.690   4.958
 4928PAPS   D3A55347  34.707  31.486   5.351
 4928PAPS   D4A55348  34.382  31.562   5.640
 4928PAPS   C5A55349  34.534  31.275   5.997
 4928PAPS   C1B55350  35.415  31.695   4.904
 4928PAPS   C2B55351  35.193  31.756   5.399
 4928PAPS   C3B55352  35.287  32.120   5.758
 4928PAPS   C4B55353  35.409  32.545   5.977
 4929PAPS   CNO55354  30.032  11.609   3.299
 4929PAPS   PO455355  29.808  11.370   3.502
 4929PAPS   GL155356  30.038  11.218   3.786
 4929PAPS   GL255357  30.271  11.270   3.888
 4929PAPS   C1A55358  30.088  10.881   3.983
 4929PAPS   D2A55359  30.092  10.562   4.167
 4929PAPS   D3A55360  29.795  10.223   4.321
 4929PAPS   D4A55361  29.756   9.777   4.470
 4929PAPS   C5A55362  29.703   9.585   4.021
 4929PAPS   C1B55363  30.215  11.377   4.341
 4929PAPS   C2B55364  30.339  11.414   4.876
 4929PAPS   C3B55365  30.495  11.385   5.340
 4929PAPS   C4B55366  30.819  11.488   5.695
 4930PAPS   CNO55367  13.880  22.639   2.802
 4930PAPS   PO455368  14.018  22.739   3.165
 4930PAPS   GL155369  14.028  22.574   3.495
 4930PAPS   GL255370  14.314  22.597   3.549
 4930PAPS   C1A55371  13.838  22.493   3.815
 4930PAPS   D2A55372  13.461  22.600   3.863
 4930PAPS   D3A55373  13.097  22.652   4.068
 4930PAPS   D4A55374  12.908  22.914   4.382
 4930PAPS   C5A55375  12.544  23.011   4.697
 4930PAPS   C1B55376  14.447  22.368   3.907
 4930PAPS   C2B55377  14.520  22.275   4.467
 4930PAPS   C3B55378  14.625  22.248   4.978
 4930PAPS   C4B55379  14.451  21.919   5.283
 4931PAPS   CNO55380  10.937  21.879   2.492
 4931PAPS   PO455381  11.004  22.062   2.856
 4931PAPS   GL155382  10.969  21.833   3.116
 4931PAPS   GL255383  10.723  21.868   3.258
 4931PAPS   C1A55384  11.168  21.883   3.410
 4931PAPS   D2A55385  11.234  22.211   3.628
 4931PAPS   D3A55386  10.886  22.319   3.402
 4931PAPS   D4A55387  10.554  22.300   3.598
 4931PAPS   C5A55388  10.473  22.133   4.005
 4931PAPS   C1B55389  10.779  21.936   3.683
 4931PAPS   C2B55390  10.818  21.820   4.241
 4931PAPS   C3B55391  10.821  21.990   4.731
 4931PAPS   C4B55392  10.390  22.125   4.983
 4932PAPS   CNO55393   0.619   0.975   3.378
 4932PAPS   PO455394   0.773   0.635   3.435
 4932PAPS   GL155395   0.569   0.503   3.754
 4932PAPS   GL255396   0.447   0.755   3.733
 4932PAPS   C1A55397   0.552   0.435   4.138
 4932PAPS   D2A55398   0.617   0.442   4.522
 4932PAPS   D3A55399   0.893   0.308   4.823
 4932PAPS   D4A55400   1.034   0.175   5.237
 4932PAPS   C5A55401   0.597   0.190   5.291
 4932PAPS   C1B55402   0.341   1.023   4.163
 4932PAPS   C2B55403   0.140   1.222   4.575
 4932PAPS   C3B55404   0.118   1.159   5.063
 4932PAPS   C4B55405   0.122   0.902   5.521
 4933PAPS   CNO55406  16.408   2.114   2.730
 4933PAPS   PO455407  16.106   2.210   2.928
 4933PAPS   GL155408  16.127   2.194   3.377
 4933PAPS   GL255409  16.286   2.047   3.421
 4933PAPS   C1A55410  15.970   2.334   3.676
 4933PAPS   D2A55411  15.756   2.612   3.821
 4933PAPS   D3A55412  15.573   2.388   4.098
 4933PAPS   D4A55413  15.443   2.024   4.279
 4933PAPS   C5A55414  15.463   1.932   4.744
 4933PAPS   C1B55415  16.339   2.160   3.844
 4933PAPS   C2B55416  16.067   2.221   4.300
 4933PAPS   C3B55417  15.847   2.323   4.727
 4933PAPS   C4B55418  15.703   2.336   5.221
 4934PAPS   CNO55419  30.479  25.500   2.808
 4934PAPS   PO455420  30.683  25.274   3.033
 4934PAPS   GL155421  30.662  25.399   3.398
 4934PAPS   GL255422  30.865  25.296   3.574
 4934PAPS   C1A55423  30.444  25.443   3.665
 4934PAPS   D2A55424  30.419  25.300   4.011
 4934PAPS   D3A55425  30.787  25.298   4.162
 4934PAPS   D4A55426  31.188  25.120   4.071
 4934PAPS   C5A55427  31.130  24.704   3.890
 4934PAPS   C1B55428  30.694  24.968   3.852
 4934PAPS   C2B55429  30.782  24.763   4.255
 4934PAPS   C3B55430  30.642  24.295   4.478
 4934PAPS   C4B55431  30.601  23.814   4.619
 4935PAPS   CNO55432  19.802   2.187   3.394
 4935PAPS   PO455433  19.936   1.924   3.617
 4935PAPS   GL155434  19.885   1.984   4.066
 4935PAPS   GL255435  19.932   1.764   4.198
 4935PAPS   C1A55436  20.001   2.238   4.297
 4935PAPS   D2A55437  20.249   2.569   4.325
 4935PAPS   D3A55438  20.246   2.948   4.586
 4935PAPS   D4A55439  19.913   3.262   4.660
 4935PAPS   C5A55440  19.752   3.560   4.972
 4935PAPS   C1B55441  20.025   1.673   4.610
 4935PAPS   C2B55442  20.430   1.487   4.883
 4935PAPS   C3B55443  20.773   1.374   5.211
 4935PAPS   C4B55444  20.864   0.877   5.386
 4936PAPS   CNO55445  19.452   1.361   3.405
 4936PAPS   PO455446  19.184   1.575   3.596
 4936PAPS   GL155447  19.163   1.420   3.867
 4936PAPS   GL255448  18.900   1.466   4.001
 4936PAPS   C1A55449  19.375   1.234   4.099
 4936PAPS   D2A55450  19.433   1.270   4.461
 4936PAPS   D3A55451  19.100   1.049   4.687
 4936PAPS   D4A55452  18.834   0.723   4.877
 4936PAPS   C5A55453  18.522   0.527   5.230
 4936PAPS   C1B55454  19.080   1.506   4.403
 4936PAPS   C2B55455  18.918   1.617   4.829
 4936PAPS   C3B55456  18.682   1.728   5.261
 4936PAPS   C4B55457  18.847   2.080   5.646
 4937PAPS   CNO55458  15.077  11.884   2.938
 4937PAPS   PO455459  14.980  11.921   3.283
 4937PAPS   GL155460  15.210  12.009   3.629
 4937PAPS   GL255461  14.962  12.149   3.757
 4937PAPS   C1A55462  15.439  12.136   3.868
 4937PAPS   D2A55463  15.697  12.375   4.053
 4937PAPS   D3A55464  15.588  12.678   4.398
 4937PAPS   D4A55465  15.555  13.095   4.434
 4937PAPS   C5A55466  15.189  13.201   4.162
 4937PAPS   C1B55467  15.011  12.174   4.183
 4937PAPS   C2B55468  14.678  11.992   4.589
 4937PAPS   C3B55469  14.504  11.815   5.025
 4937PAPS   C4B55470  14.540  11.531   5.411
 4938PAPS   CNO55471  17.108  19.066   3.741
 4938PAPS   PO455472  17.397  18.808   3.701
 4938PAPS   GL155473  17.537  18.475   3.996
 4938PAPS   GL255474  17.253  18.439   4.070
 4938PAPS   C1A55475  17.731  18.215   3.923
 4938PAPS   D2A55476  17.760  17.798   3.859
 4938PAPS   D3A55477  18.108  17.786   4.100
 4938PAPS   D4A55478  18.057  17.983   4.523
 4938PAPS   C5A55479  17.874  18.379   4.698
 4938PAPS   C1B55480  17.243  18.371   4.525
 4938PAPS   C2B55481  17.378  18.319   4.994
 4938PAPS   C3B55482  17.724  18.405   5.322
 4938PAPS   C4B55483  17.694  18.441   5.806
 4939PAPS   CNO55484   4.566  33.639   3.165
 4939PAPS   PO455485   4.642  33.863   3.452
 4939PAPS   GL155486   4.703  33.658   3.846
 4939PAPS   GL255487   4.467  33.793   3.928
 4939PAPS   C1A55488   4.795  33.747   4.175
 4939PAPS   D2A55489   4.879  33.710   4.523
 4939PAPS   D3A55490   4.538  33.376   4.619
 4939PAPS   D4A55491   4.343  33.107   4.836
 4939PAPS   C5A55492   4.611  33.275   5.162
 4939PAPS   C1B55493   4.384  33.736   4.383
 4939PAPS   C2B55494   4.290  33.730   4.936
 4939PAPS   C3B55495   4.212  34.063   5.275
 4939PAPS   C4B55496   3.943  34.013   5.694
 4940PAPS   CNO55497  13.501  33.322   3.621
 4940PAPS   PO455498  13.263  33.142   3.855
 4940PAPS   GL155499  13.396  33.112   4.188
 4940PAPS   GL255500  13.603  33.219   4.290
 4940PAPS   C1A55501  13.348  32.783   4.423
 4940PAPS   D2A55502  13.243  32.743   4.832
 4940PAPS   D3A55503  12.989  33.003   5.025
 4940PAPS   D4A55504  12.571  33.014   4.898
 4940PAPS   C5A55505  12.221  33.323   5.117
 4940PAPS   C1B55506  13.490  33.202   4.758
 4940PAPS   C2B55507  13.343  33.239   5.311
 4940PAPS   C3B55508  12.952  33.035   5.528
 4940PAPS   C4B55509  12.445  33.066   5.438
 4941PAPS   CNO55510  10.293  34.946   2.809
 4941PAPS   PO455511   9.973  34.848   2.963
 4941PAPS   GL155512   9.909  34.811   3.354
 4941PAPS   GL255513   9.732  34.659   3.437
 4941PAPS   C1A55514   9.925  35.132   3.485
 4941PAPS   D2A55515   9.737  35.096   3.827
 4941PAPS   D3A55516   9.663  35.210   4.236
 4941PAPS   D4A55517   9.556  35.386   4.673
 4941PAPS   C5A55518   9.147  35.366   4.952
 4941PAPS   C1B55519   9.754  34.527   3.844
 4941PAPS   C2B55520   9.853  34.741   4.282
 4941PAPS   C3B55521   9.859  34.882   4.744
 4941PAPS   C4B55522  10.057  35.172   5.197
 4942PAPS   CNO55523  10.608  14.300   3.441
 4942PAPS   PO455524  10.896  14.516   3.263
 4942PAPS   GL155525  11.092  14.497   3.572
 4942PAPS   GL255526  11.107  14.262   3.694
 4942PAPS   C1A55527  11.265  14.753   3.801
 4942PAPS   D2A55528  11.313  15.043   4.038
 4942PAPS   D3A55529  11.650  15.176   4.265
 4942PAPS   D4A55530  11.778  15.214   4.691
 4942PAPS   C5A55531  12.047  14.886   4.889
 4942PAPS   C1B55532  10.951  14.360   4.119
 4942PAPS   C2B55533  10.935  14.474   4.567
 4942PAPS   C3B55534  11.122  14.484   4.993
 4942PAPS   C4B55535  11.203  14.768   5.389
 4943PAPS   CNO55536  28.213  28.093   2.898
 4943PAPS   PO455537  28.034  27.778   2.896
 4943PAPS   GL155538  28.062  27.707   3.352
 4943PAPS   GL255539  28.018  27.957   3.301
 4943PAPS   C1A55540  28.107  27.681   3.724
 4943PAPS   D2A55541  28.159  27.537   4.066
 4943PAPS   D3A55542  28.137  27.145   4.255
 4943PAPS   D4A55543  28.247  26.824   4.539
 4943PAPS   C5A55544  28.584  26.779   4.920
 4943PAPS   C1B55545  27.787  27.995   3.645
 4943PAPS   C2B55546  27.450  27.935   4.069
 4943PAPS   C3B55547  27.426  28.076   4.526
 4943PAPS   C4B55548  27.468  28.396   4.914
 4944PAPS   CNO55549  22.265   1.964   2.754
 4944PAPS   PO455550  22.078   2.234   2.965
 4944PAPS   GL155551  22.207   2.334   3.399
 4944PAPS   GL255552  22.137   2.596   3.425
 4944PAPS   C1A55553  22.290   2.166   3.691
 4944PAPS   D2A55554  22.225   2.112   4.135
 4944PAPS   D3A55555  22.052   1.856   4.473
 4944PAPS   D4A55556  22.277   2.126   4.704
 4944PAPS   C5A55557  22.217   2.477   5.050
 4944PAPS   C1B55558  22.140   2.508   3.874
 4944PAPS   C2B55559  21.960   2.482   4.388
 4944PAPS   C3B55560  21.832   2.218   4.813
 4944PAPS   C4B55561  21.543   2.056   5.111
 4945PAPS   CNO55562  29.849  16.503   2.992
 4945PAPS   PO455563  29.805  16.252   3.215
 4945PAPS   GL155564  29.709  16.139   3.603
 4945PAPS   GL255565  29.966  16.050   3.695
 4945PAPS   C1A55566  29.476  16.264   3.889
 4945PAPS   D2A55567  29.131  16.388   4.101
 4945PAPS   D3A55568  29.109  16.748   3.874
 4945PAPS   D4A55569  29.159  17.225   4.054
 4945PAPS   C5A55570  29.233  17.628   3.841
 4945PAPS   C1B55571  30.145  16.165   4.068
 4945PAPS   C2B55572  30.274  16.608   4.222
 4945PAPS   C3B55573  30.383  16.896   4.554
 4945PAPS   C4B55574  30.183  17.192   4.879
 4946PAPS   CNO55575  18.107  11.793   3.277
 4946PAPS   PO455576  17.903  12.034   3.434
 4946PAPS   GL155577  18.107  12.207   3.801
 4946PAPS   GL255578  18.136  12.473   3.609
 4946PAPS   C1A55579  18.356  12.054   4.028
 4946PAPS   D2A55580  18.614  11.841   4.163
 4946PAPS   D3A55581  18.293  11.620   4.315
 4946PAPS   D4A55582  17.870  11.745   4.393
 4946PAPS   C5A55583  17.788  12.015   4.858
 4946PAPS   C1B55584  17.808  12.623   3.808
 4946PAPS   C2B55585  17.616  12.833   4.214
 4946PAPS   C3B55586  17.541  12.904   4.635
 4946PAPS   C4B55587  17.441  12.666   5.002
 4947PAPS   CNO55588  24.645  17.190   3.576
 4947PAPS   PO455589  24.551  17.560   3.677
 4947PAPS   GL155590  24.642  17.354   4.056
 4947PAPS   GL255591  24.450  17.526   4.099
 4947PAPS   C1A55592  24.546  17.364   4.452
 4947PAPS   D2A55593  24.278  17.355   4.762
 4947PAPS   D3A55594  24.233  17.237   5.124
 4947PAPS   D4A55595  23.961  17.367   5.478
 4947PAPS   C5A55596  23.750  17.747   5.532
 4947PAPS   C1B55597  24.209  17.690   4.476
 4947PAPS   C2B55598  24.144  18.041   4.813
 4947PAPS   C3B55599  24.116  18.315   5.184
 4947PAPS   C4B55600  24.468  18.658   5.288
 4948PAPS   CNO55601  18.433  23.970   3.169
 4948PAPS   PO455602  18.618  23.784   3.428
 4948PAPS   GL155603  18.497  23.743   3.807
 4948PAPS   GL255604  18.718  23.559   3.898
 4948PAPS   C1A55605  18.192  23.808   4.056
 4948PAPS   D2A55606  17.826  23.878   4.032
 4948PAPS   D3A55607  17.601  23.464   4.112
 4948PAPS   D4A55608  17.433  23.082   3.997
 4948PAPS   C5A55609  17.730  22.826   3.712
 4948PAPS   C1B55610  18.753  23.430   4.249
 4948PAPS   C2B55611  19.112  23.352   4.577
 4948PAPS   C3B55612  19.415  23.289   4.862
 4948PAPS   C4B55613  19.611  23.561   5.216
 4949PAPS   CNO55614   3.223   2.476   2.786
 4949PAPS   PO455615   3.410   2.235   2.998
 4949PAPS   GL155616   3.510   2.265   3.380
 4949PAPS   GL255617   3.281   2.039   3.465
 4949PAPS   C1A55618   3.493   2.450   3.717
 4949PAPS   D2A55619   3.601   2.402   4.086
 4949PAPS   D3A55620   3.566   2.774   4.346
 4949PAPS   D4A55621   3.726   2.786   4.744
 4949PAPS   C5A55622   3.933   2.644   5.071
 4949PAPS   C1B55623   3.335   1.687   3.751
 4949PAPS   C2B55624   3.540   1.566   4.223
 4949PAPS   C3B55625   3.398   1.593   4.667
 4949PAPS   C4B55626   3.228   1.800   5.037
 4950PAPS   CNO55627  23.085  28.588   2.902
 4950PAPS   PO455628  23.204  28.887   3.084
 4950PAPS   GL155629  23.370  29.154   3.369
 4950PAPS   GL255630  23.243  29.295   3.409
 4950PAPS   C1A55631  23.470  28.955   3.613
 4950PAPS   D2A55632  23.489  28.585   3.731
 4950PAPS   D3A55633  23.445  28.370   4.078
 4950PAPS   D4A55634  23.656  28.062   4.154
 4950PAPS   C5A55635  23.531  28.067   4.615
 4950PAPS   C1B55636  23.478  29.305   3.818
 4950PAPS   C2B55637  23.604  29.530   4.264
 4950PAPS   C3B55638  23.780  29.774   4.678
 4950PAPS   C4B55639  23.966  30.026   5.063
 4951PAPS   CNO55640  27.857  10.743   3.546
 4951PAPS   PO455641  28.085  11.004   3.666
 4951PAPS   GL155642  28.171  10.884   3.999
 4951PAPS   GL255643  27.913  11.026   4.048
 4951PAPS   C1A55644  28.173  10.618   4.238
 4951PAPS   D2A55645  28.138  10.355   4.588
 4951PAPS   D3A55646  27.750  10.413   4.920
 4951PAPS   D4A55647  27.648  10.630   5.347
 4951PAPS   C5A55648  27.834  11.007   5.278
 4951PAPS   C1B55649  28.021  11.232   4.385
 4951PAPS   C2B55650  28.323  11.360   4.756
 4951PAPS   C3B55651  28.356  11.409   5.233
 4951PAPS   C4B55652  28.066  11.274   5.597
 4952PAPS   CNO55653  35.306   9.045   3.050
 4952PAPS   PO455654  35.250   8.699   3.117
 4952PAPS   GL155655  35.204   8.780   3.557
 4952PAPS   GL255656  34.955   8.838   3.437
 4952PAPS   C1A55657  35.089   8.630   3.837
 4952PAPS   D2A55658  35.365   8.614   4.113
 4952PAPS   D3A55659  35.333   8.914   4.435
 4952PAPS   D4A55660  35.559   8.779   4.809
 4952PAPS   C5A55661  35.935   8.412   4.860
 4952PAPS   C1B55662  34.679   8.503   3.559
 4952PAPS   C2B55663  34.447   8.260   3.998
 4952PAPS   C3B55664  34.449   8.305   4.533
 4952PAPS   C4B55665  34.378   8.461   4.963
 4953PAPS   CNO55666   7.415   2.079   2.872
 4953PAPS   PO455667   7.310   1.877   3.161
 4953PAPS   GL155668   7.141   2.022   3.520
 4953PAPS   GL255669   7.226   1.793   3.703
 4953PAPS   C1A55670   6.785   2.025   3.731
 4953PAPS   D2A55671   6.507   2.173   3.937
 4953PAPS   D3A55672   6.551   2.169   4.410
 4953PAPS   D4A55673   6.640   2.433   4.758
 4953PAPS   C5A55674   6.597   2.765   5.070
 4953PAPS   C1B55675   7.124   1.935   4.120
 4953PAPS   C2B55676   7.005   2.059   4.538
 4953PAPS   C3B55677   6.939   1.965   5.061
 4953PAPS   C4B55678   6.864   1.862   5.536
 4954PAPS   CNO55679  23.468  35.091   2.845
 4954PAPS   PO455680  23.370  34.874   3.140
 4954PAPS   GL155681  23.150  34.999   3.468
 4954PAPS   GL255682  23.399  35.048   3.587
 4954PAPS   C1A55683  23.021  34.813   3.756
 4954PAPS   D2A55684  22.907  34.516   3.986
 4954PAPS   D3A55685  22.867  34.051   3.953
 4954PAPS   D4A55686  22.856  33.771   4.340
 4954PAPS   C5A55687  23.081  33.680   4.694
 4954PAPS   C1B55688  23.185  35.102   4.029
 4954PAPS   C2B55689  23.006  34.796   4.372
 4954PAPS   C3B55690  22.987  34.284   4.430
 4954PAPS   C4B55691  23.231  34.216   4.902
 4955PAPS   CNO55692  10.894   0.965   3.013
 4955PAPS   PO455693  11.181   1.240   3.029
 4955PAPS   GL155694  11.284   1.522   3.327
 4955PAPS   GL255695  11.077   1.709   3.244
 4955PAPS   C1A55696  11.452   1.549   3.703
 4955PAPS   D2A55697  11.364   1.655   4.128
 4955PAPS   D3A55698  10.992   1.788   4.319
 4955PAPS   D4A55699  10.901   1.644   4.732
 4955PAPS   C5A55700  10.911   1.451   5.142
 4955PAPS   C1B55701  10.880   2.039   3.426
 4955PAPS   C2B55702  10.927   2.135   3.953
 4955PAPS   C3B55703  10.874   2.324   4.391
 4955PAPS   C4B55704  11.213   2.667   4.637
 4956PAPS   CNO55705  19.700   6.336   3.014
 4956PAPS   PO455706  19.979   6.282   3.237
 4956PAPS   GL155707  20.231   6.469   3.453
 4956PAPS   GL255708  20.022   6.695   3.424
 4956PAPS   C1A55709  20.268   6.524   3.792
 4956PAPS   D2A55710  20.236   6.657   4.171
 4956PAPS   D3A55711  20.051   6.736   4.499
 4956PAPS   D4A55712  19.697   6.818   4.758
 4956PAPS   C5A55713  19.846   6.771   5.173
 4956PAPS   C1B55714  19.966   6.839   3.839
 4956PAPS   C2B55715  19.859   7.292   4.027
 4956PAPS   C3B55716  19.603   7.614   4.289
 4956PAPS   C4B55717  19.453   7.988   4.612
 4957PAPS   CNO55718   2.678  10.735   3.760
 4957PAPS   PO455719   3.105  10.728   3.712
 4957PAPS   GL155720   3.253  10.976   4.098
 4957PAPS   GL255721   2.949  10.869   4.167
 4957PAPS   C1A55722   3.486  11.096   4.384
 4957PAPS   D2A55723   3.681  11.005   4.687
 4957PAPS   D3A55724   3.512  10.819   5.102
 4957PAPS   D4A55725   3.702  10.941   5.501
 4957PAPS   C5A55726   3.599  10.931   5.997
 4957PAPS   C1B55727   2.824  10.631   4.550
 4957PAPS   C2B55728   2.560  10.555   4.961
 4957PAPS   C3B55729   2.471  10.341   5.391
 4957PAPS   C4B55730   2.533  10.025   5.793
 4958PAPS   CNO55731  26.130  33.517   2.871
 4958PAPS   PO455732  26.437  33.452   3.072
 4958PAPS   GL155733  26.731  33.310   3.410
 4958PAPS   GL255734  26.521  33.561   3.519
 4958PAPS   C1A55735  26.809  33.168   3.789
 4958PAPS   D2A55736  26.769  33.231   4.169
 4958PAPS   D3A55737  26.999  33.561   4.410
 4958PAPS   D4A55738  27.385  33.783   4.195
 4958PAPS   C5A55739  27.834  33.732   3.901
 4958PAPS   C1B55740  26.114  33.693   3.564
 4958PAPS   C2B55741  25.697  33.826   3.800
 4958PAPS   C3B55742  25.289  34.093   3.868
 4958PAPS   C4B55743  25.172  34.492   3.993
 4959PAPS   CNO55744   2.930  32.008   3.613
 4959PAPS   PO455745   2.569  31.998   3.523
 4959PAPS   GL155746   2.403  31.966   3.879
 4959PAPS   GL255747   2.264  31.736   3.995
 4959PAPS   C1A55748   2.586  32.095   4.204
 4959PAPS   D2A55749   2.636  32.034   4.630
 4959PAPS   D3A55750   2.603  31.814   5.013
 4959PAPS   D4A55751   2.742  31.811   5.442
 4959PAPS   C5A55752   2.911  32.172   5.579
 4959PAPS   C1B55753   2.299  31.709   4.422
 4959PAPS   C2B55754   2.298  31.448   4.841
 4959PAPS   C3B55755   2.359  31.526   5.321
 4959PAPS   C4B55756   2.168  31.676   5.715
 4960PAPS   CNO55757  25.036  32.170   2.986
 4960PAPS   PO455758  25.281  31.946   3.211
 4960PAPS   GL155759  25.479  31.970   3.638
 4960PAPS   GL255760  25.193  31.970   3.770
 4960PAPS   C1A55761  25.688  31.766   3.900
 4960PAPS   D2A55762  25.815  31.427   3.894
 4960PAPS   D3A55763  26.062  31.483   4.263
 4960PAPS   D4A55764  26.480  31.603   4.398
 4960PAPS   C5A55765  26.673  31.341   4.758
 4960PAPS   C1B55766  25.189  32.137   4.156
 4960PAPS   C2B55767  25.108  32.195   4.740
 4960PAPS   C3B55768  25.435  32.347   5.124
 4960PAPS   C4B55769  25.925  32.528   5.198
 4961PAPS   CNO55770  28.834  28.929   2.903
 4961PAPS   PO455771  28.864  29.110   3.208
 4961PAPS   GL155772  28.624  29.483   3.406
 4961PAPS   GL255773  28.634  29.179   3.609
 4961PAPS   C1A55774  28.548  29.678   3.739
 4961PAPS   D2A55775  28.227  29.749   3.957
 4961PAPS   D3A55776  28.528  29.800   4.236
 4961PAPS   D4A55777  28.949  29.715   4.206
 4961PAPS   C5A55778  28.944  29.869   3.679
 4961PAPS   C1B55779  28.485  29.311   3.955
 4961PAPS   C2B55780  28.354  29.308   4.425
 4961PAPS   C3B55781  28.115  29.061   4.742
 4961PAPS   C4B55782  27.944  28.673   4.931
 4962PAPS   CNO55783  22.411  31.329   3.049
 4962PAPS   PO455784  22.084  31.514   3.071
 4962PAPS   GL155785  22.161  31.480   3.463
 4962PAPS   GL255786  22.136  31.205   3.500
 4962PAPS   C1A55787  22.246  31.725   3.720
 4962PAPS   D2A55788  22.411  31.964   4.030
 4962PAPS   D3A55789  22.338  32.344   4.268
 4962PAPS   D4A55790  22.584  32.348   4.604
 4962PAPS   C5A55791  22.829  32.472   5.011
 4962PAPS   C1B55792  22.144  31.263   3.960
 4962PAPS   C2B55793  22.167  31.430   4.400
 4962PAPS   C3B55794  22.215  31.532   4.894
 4962PAPS   C4B55795  22.405  31.438   5.350
 4963PAPS   CNO55796  18.623  32.907   3.125
 4963PAPS   PO455797  18.433  33.153   3.352
 4963PAPS   GL155798  18.586  33.276   3.736
 4963PAPS   GL255799  18.346  33.047   3.804
 4963PAPS   C1A55800  18.922  33.382   3.862
 4963PAPS   D2A55801  19.201  33.355   4.143
 4963PAPS   D3A55802  19.469  33.235   4.462
 4963PAPS   D4A55803  19.567  33.482   4.917
 4963PAPS   C5A55804  19.715  33.889   5.048
 4963PAPS   C1B55805  18.069  33.134   4.085
 4963PAPS   C2B55806  17.762  33.471   4.502
 4963PAPS   C3B55807  17.749  33.918   4.624
 4963PAPS   C4B55808  17.874  33.995   5.091
 4964PAPS   CNO55809  28.992   7.913   2.871
 4964PAPS   PO455810  28.891   8.186   3.107
 4964PAPS   GL155811  28.780   8.034   3.521
 4964PAPS   GL255812  29.051   8.228   3.616
 4964PAPS   C1A55813  28.717   7.994   3.872
 4964PAPS   D2A55814  28.630   7.717   4.113
 4964PAPS   D3A55815  28.648   7.616   4.582
 4964PAPS   D4A55816  28.374   7.265   4.443
 4964PAPS   C5A55817  28.149   7.622   4.156
 4964PAPS   C1B55818  28.995   8.244   4.077
 4964PAPS   C2B55819  29.121   8.275   4.543
 4964PAPS   C3B55820  28.926   8.675   4.616
 4964PAPS   C4B55821  28.756   9.058   4.911
 4965PAPS   CNO55822  17.184   4.821   3.329
 4965PAPS   PO455823  17.159   4.617   3.644
 4965PAPS   GL155824  16.795   4.581   3.993
 4965PAPS   GL255825  16.994   4.624   4.147
 4965PAPS   C1A55826  16.582   4.543   4.288
 4965PAPS   D2A55827  16.847   4.646   4.558
 4965PAPS   D3A55828  17.151   4.586   4.885
 4965PAPS   D4A55829  17.549   4.752   5.058
 4965PAPS   C5A55830  18.062   4.780   5.105
 4965PAPS   C1B55831  17.302   4.545   4.500
 4965PAPS   C2B55832  17.622   4.283   4.899
 4965PAPS   C3B55833  17.993   4.301   5.226
 4965PAPS   C4B55834  17.963   4.145   5.717
 4966PAPS   CNO55835   9.887   6.154   2.941
 4966PAPS   PO455836   9.707   6.397   3.130
 4966PAPS   GL155837   9.846   6.494   3.443
 4966PAPS   GL255838   9.545   6.425   3.554
 4966PAPS   C1A55839  10.204   6.544   3.578
 4966PAPS   D2A55840  10.398   6.392   3.914
 4966PAPS   D3A55841  10.353   6.440   4.351
 4966PAPS   D4A55842  10.432   6.028   4.223
 4966PAPS   C5A55843  10.164   5.861   3.865
 4966PAPS   C1B55844   9.207   6.758   3.712
 4966PAPS   C2B55845   8.999   7.137   3.952
 4966PAPS   C3B55846   8.955   7.585   3.805
 4966PAPS   C4B55847   9.062   8.019   4.036
 4967PAPS   CNO55848  13.241  34.933   3.005
 4967PAPS   PO455849  12.949  34.718   3.166
 4967PAPS   GL155850  12.926  34.775   3.537
 4967PAPS   GL255851  12.687  34.986   3.466
 4967PAPS   C1A55852  12.874  34.720   3.852
 4967PAPS   D2A55853  12.893  34.685   4.203
 4967PAPS   D3A55854  13.202  34.786   4.489
 4967PAPS   D4A55855  13.370  34.407   4.423
 4967PAPS   C5A55856  13.335  34.450   4.888
 4967PAPS   C1B55857  12.486  35.023   3.821
 4967PAPS   C2B55858  12.394  34.938   4.284
 4967PAPS   C3B55859  12.302  34.661   4.665
 4967PAPS   C4B55860  12.358  34.301   5.000
 4968PAPS   CNO55861   3.771   6.615   3.133
 4968PAPS   PO455862   3.724   6.548   3.490
 4968PAPS   GL155863   3.564   6.789   3.856
 4968PAPS   GL255864   3.538   6.539   4.031
 4968PAPS   C1A55865   3.321   7.010   4.028
 4968PAPS   D2A55866   3.118   6.991   4.363
 4968PAPS   D3A55867   2.832   7.056   4.752
 4968PAPS   D4A55868   2.938   6.972   5.214
 4968PAPS   C5A55869   2.626   7.280   5.328
 4968PAPS   C1B55870   3.231   6.195   4.128
 4968PAPS   C2B55871   2.865   5.986   4.432
 4968PAPS   C3B55872   2.699   5.949   4.897
 4968PAPS   C4B55873   2.770   5.787   5.366
 4969PAPS   CNO55874  31.720  17.302   3.140
 4969PAPS   PO455875  31.714  17.406   3.532
 4969PAPS   GL155876  31.657  17.205   3.815
 4969PAPS   GL255877  31.568  16.901   3.710
 4969PAPS   C1A55878  31.712  17.197   4.154
 4969PAPS   D2A55879  31.692  17.017   4.551
 4969PAPS   D3A55880  31.931  16.739   4.779
 4969PAPS   D4A55881  31.831  16.489   5.156
 4969PAPS   C5A55882  31.385  16.434   5.338
 4969PAPS   C1B55883  31.560  16.700   4.107
 4969PAPS   C2B55884  31.784  16.279   4.379
 4969PAPS   C3B55885  31.934  16.161   4.853
 4969PAPS   C4B55886  32.150  16.037   5.331
 4970PAPS   CNO55887  11.140  26.053   2.426
 4970PAPS   PO455888  11.305  26.166   2.749
 4970PAPS   GL155889  11.111  26.023   3.100
 4970PAPS   GL255890  11.116  26.269   3.189
 4970PAPS   C1A55891  11.143  25.808   3.408
 4970PAPS   D2A55892  11.321  25.657   3.756
 4970PAPS   D3A55893  11.343  25.636   4.200
 4970PAPS   D4A55894  11.406  25.795   4.587
 4970PAPS   C5A55895  11.529  25.463   4.938
 4970PAPS   C1B55896  10.937  26.293   3.601
 4970PAPS   C2B55897  10.907  25.999   4.028
 4970PAPS   C3B55898  10.749  25.655   4.327
 4970PAPS   C4B55899  10.368  25.431   4.646
 4971PAPS   CNO55900   2.986   4.273   3.499
 4971PAPS   PO455901   3.271   4.116   3.680
 4971PAPS   GL155902   3.147   4.105   4.083
 4971PAPS   GL255903   2.910   4.167   3.986
 4971PAPS   C1A55904   3.133   4.333   4.411
 4971PAPS   D2A55905   2.851   4.463   4.720
 4971PAPS   D3A55906   2.719   4.726   4.437
 4971PAPS   D4A55907   2.747   4.967   4.784
 4971PAPS   C5A55908   2.612   5.009   5.231
 4971PAPS   C1B55909   2.662   4.219   4.362
 4971PAPS   C2B55910   2.597   4.054   4.891
 4971PAPS   C3B55911   2.684   4.009   5.374
 4971PAPS   C4B55912   2.644   4.093   5.889
 4972PAPS   CNO55913  10.467  11.141   2.982
 4972PAPS   PO455914  10.697  11.113   3.277
 4972PAPS   GL155915  10.682  11.139   3.684
 4972PAPS   GL255916  10.900  11.294   3.778
 4972PAPS   C1A55917  10.388  11.071   3.897
 4972PAPS   D2A55918  10.466  11.391   4.017
 4972PAPS   D3A55919  10.783  11.576   4.367
 4972PAPS   D4A55920  11.016  11.788   4.636
 4972PAPS   C5A55921  11.082  11.745   5.089
 4972PAPS   C1B55922  10.950  11.139   4.207
 4972PAPS   C2B55923  11.015  10.927   4.648
 4972PAPS   C3B55924  10.631  10.942   4.992
 4972PAPS   C4B55925  10.238  10.788   5.251
 4973PAPS   CNO55926  18.456  29.803   3.123
 4973PAPS   PO455927  18.727  30.002   3.293
 4973PAPS   GL155928  18.784  30.046   3.691
 4973PAPS   GL255929  19.031  29.956   3.799
 4973PAPS   C1A55930  18.751  30.133   4.072
 4973PAPS   D2A55931  18.562  30.105   4.398
 4973PAPS   D3A55932  18.175  30.214   4.640
 4973PAPS   D4A55933  18.010  30.248   5.023
 4973PAPS   C5A55934  18.186  30.629   5.231
 4973PAPS   C1B55935  18.887  29.745   4.133
 4973PAPS   C2B55936  18.841  29.716   4.605
 4973PAPS   C3B55937  18.713  29.462   5.033
 4973PAPS   C4B55938  18.320  29.468   5.356
 4974PAPS   CNO55939  13.715   4.616   3.122
 4974PAPS   PO455940  13.863   4.329   3.306
 4974PAPS   GL155941  13.934   4.484   3.690
 4974PAPS   GL255942  14.185   4.399   3.708
 4974PAPS   C1A55943  13.762   4.670   3.941
 4974PAPS   D2A55944  13.804   4.903   4.236
 4974PAPS   D3A55945  14.084   4.961   4.594
 4974PAPS   D4A55946  14.145   4.892   5.075
 4974PAPS   C5A55947  14.177   5.225   5.417
 4974PAPS   C1B55948  14.243   4.229   4.068
 4974PAPS   C2B55949  14.412   4.076   4.574
 4974PAPS   C3B55950  14.376   3.832   4.984
 4974PAPS   C4B55951  14.181   3.500   5.284
 4975PAPS   CNO55952  34.654  25.542   3.384
 4975PAPS   PO455953  34.546  25.902   3.262
 4975PAPS   GL155954  34.445  25.880   3.660
 4975PAPS   GL255955  34.573  26.153   3.731
 4975PAPS   C1A55956  34.447  25.741   4.011
 4975PAPS   D2A55957  34.253  25.453   4.100
 4975PAPS   D3A55958  34.517  25.111   4.158
 4975PAPS   D4A55959  34.896  24.856   4.029
 4975PAPS   C5A55960  35.135  24.627   4.221
 4975PAPS   C1B55961  34.677  26.040   4.131
 4975PAPS   C2B55962  34.794  25.927   4.624
 4975PAPS   C3B55963  34.929  25.840   5.117
 4975PAPS   C4B55964  34.834  25.785   5.632
 4976PAPS   CNO55965  23.786  35.235   3.269
 4976PAPS   PO455966  24.110  35.426   3.336
 4976PAPS   GL155967  24.365  35.439   3.685
 4976PAPS   GL255968  24.406  35.167   3.772
 4976PAPS   C1A55969  24.146  35.503   3.945
 4976PAPS   D2A55970  23.892  35.539   4.247
 4976PAPS   D3A55971  23.842  35.519   4.738
 4976PAPS   D4A55972  23.865  35.957   4.874
 4976PAPS   C5A55973  24.176  36.243   5.068
 4976PAPS   C1B55974  24.169  35.116   4.135
 4976PAPS   C2B55975  23.978  34.897   4.534
 4976PAPS   C3B55976  23.737  34.957   4.966
 4976PAPS   C4B55977  23.544  35.242   5.324
 4977PAPS   CNO55978  24.835  13.075   3.188
 4977PAPS   PO455979  25.059  13.213   3.473
 4977PAPS   GL155980  25.005  12.926   3.783
 4977PAPS   GL255981  24.963  13.087   4.018
 4977PAPS   C1A55982  25.344  12.768   3.862
 4977PAPS   D2A55983  25.601  12.844   4.139
 4977PAPS   D3A55984  25.855  12.526   4.364
 4977PAPS   D4A55985  25.794  12.209   4.657
 4977PAPS   C5A55986  26.074  12.131   4.997
 4977PAPS   C1B55987  25.046  13.018   4.452
 4977PAPS   C2B55988  25.134  12.976   5.014
 4977PAPS   C3B55989  25.297  12.981   5.418
 4977PAPS   C4B55990  25.662  13.312   5.454
 4978PAPS   CNO55991  20.194  32.416   3.220
 4978PAPS   PO455992  20.136  32.145   3.416
 4978PAPS   GL155993  20.068  31.923   3.885
 4978PAPS   GL255994  20.260  32.105   3.983
 4978PAPS   C1A55995  19.842  31.651   3.956
 4978PAPS   D2A55996  19.614  31.322   4.059
 4978PAPS   D3A55997  19.394  30.965   3.920
 4978PAPS   D4A55998  18.995  30.842   3.748
 4978PAPS   C5A55999  18.710  30.477   3.737
 4978PAPS   C1B56000  20.127  32.448   4.180
 4978PAPS   C2B56001  19.829  32.628   4.648
 4978PAPS   C3B56002  19.677  32.710   5.088
 4978PAPS   C4B56003  19.526  33.009   5.468
 4979PAPS   CNO56004  12.659  13.196   2.928
 4979PAPS   PO456005  12.459  13.169   3.266
 4979PAPS   GL156006  12.611  13.394   3.711
 4979PAPS   GL256007  12.663  13.114   3.699
 4979PAPS   C1A56008  12.454  13.518   4.022
 4979PAPS   D2A56009  12.268  13.856   4.203
 4979PAPS   D3A56010  12.557  13.898   4.499
 4979PAPS   D4A56011  12.908  13.819   4.770
 4979PAPS   C5A56012  13.270  13.762   5.087
 4979PAPS   C1B56013  12.300  13.107   4.087
 4979PAPS   C2B56014  12.210  13.112   4.558
 4979PAPS   C3B56015  12.041  13.151   4.995
 4979PAPS   C4B56016  12.035  13.162   5.491
 4980PAPS   CNO56017   3.357   0.730   3.448
 4980PAPS   PO456018   3.342   1.112   3.296
 4980PAPS   GL156019   3.342   1.288   3.663
 4980PAPS   GL256020   3.595   1.269   3.740
 4980PAPS   C1A56021   3.069   1.328   3.865
 4980PAPS   D2A56022   3.029   1.554   4.200
 4980PAPS   D3A56023   2.895   1.642   4.671
 4980PAPS   D4A56024   2.756   2.047   4.878
 4980PAPS   C5A56025   2.844   1.899   5.337
 4980PAPS   C1B56026   3.812   1.224   4.114
 4980PAPS   C2B56027   3.944   1.408   4.524
 4980PAPS   C3B56028   4.134   1.085   4.769
 4980PAPS   C4B56029   4.322   0.890   5.101
 4981PAPS   CNO56030   6.278  31.800   3.091
 4981PAPS   PO456031   6.199  31.436   3.227
 4981PAPS   GL156032   6.163  31.392   3.674
 4981PAPS   GL256033   6.388  31.300   3.777
 4981PAPS   C1A56034   6.033  31.585   3.947
 4981PAPS   D2A56035   6.073  31.835   4.248
 4981PAPS   D3A56036   5.974  32.012   4.673
 4981PAPS   D4A56037   6.094  32.333   4.979
 4981PAPS   C5A56038   6.391  32.646   4.805
 4981PAPS   C1B56039   6.368  31.423   4.220
 4981PAPS   C2B56040   6.265  31.607   4.687
 4981PAPS   C3B56041   6.404  31.352   5.137
 4981PAPS   C4B56042   6.786  31.008   5.222
 4982PAPS   CNO56043   5.699  27.998   3.070
 4982PAPS   PO456044   5.792  28.265   3.318
 4982PAPS   GL156045   5.785  28.054   3.642
 4982PAPS   GL256046   5.920  28.208   3.823
 4982PAPS   C1A56047   5.656  27.711   3.789
 4982PAPS   D2A56048   5.655  27.457   4.054
 4982PAPS   D3A56049   5.446  27.377   4.518
 4982PAPS   D4A56050   5.338  27.493   4.959
 4982PAPS   C5A56051   5.486  27.728   5.367
 4982PAPS   C1B56052   5.665  28.007   4.120
 4982PAPS   C2B56053   5.435  27.865   4.619
 4982PAPS   C3B56054   5.195  28.007   5.016
 4982PAPS   C4B56055   5.335  28.219   5.437
 4983PAPS   CNO56056  30.069  28.526   3.175
 4983PAPS   PO456057  30.039  28.213   3.364
 4983PAPS   GL156058  29.872  28.226   3.738
 4983PAPS   GL256059  30.203  28.205   3.811
 4983PAPS   C1A56060  29.595  28.167   3.984
 4983PAPS   D2A56061  29.317  28.204   4.285
 4983PAPS   D3A56062  29.346  28.275   4.733
 4983PAPS   D4A56063  29.515  28.628   4.601
 4983PAPS   C5A56064  29.788  28.218   4.481
 4983PAPS   C1B56065  30.123  27.993   4.188
 4983PAPS   C2B56066  30.030  27.942   4.738
 4983PAPS   C3B56067  29.889  28.036   5.157
 4983PAPS   C4B56068  29.402  28.102   5.164
 4984PAPS   CNO56069   2.970  11.250   3.791
 4984PAPS   PO456070   2.990  11.628   3.934
 4984PAPS   GL156071   2.953  11.715   4.350
 4984PAPS   GL256072   2.926  11.290   4.304
 4984PAPS   C1A56073   2.828  11.724   4.647
 4984PAPS   D2A56074   2.721  11.508   4.979
 4984PAPS   D3A56075   3.121  11.369   5.162
 4984PAPS   D4A56076   3.337  11.303   5.530
 4984PAPS   C5A56077   3.519  11.478   5.891
 4984PAPS   C1B56078   2.691  11.133   4.591
 4984PAPS   C2B56079   2.597  11.043   5.115
 4984PAPS   C3B56080   2.627  10.819   5.555
 4984PAPS   C4B56081   2.720  10.608   6.006
 4985PAPS   CNO56082  27.730  28.178   2.725
 4985PAPS   PO456083  27.847  28.516   2.758
 4985PAPS   GL156084  27.968  28.698   3.096
 4985PAPS   GL256085  28.112  28.435   3.194
 4985PAPS   C1A56086  27.718  28.822   3.245
 4985PAPS   D2A56087  27.449  28.768   3.569
 4985PAPS   D3A56088  27.489  29.167   3.532
 4985PAPS   D4A56089  27.212  29.300   3.252
 4985PAPS   C5A56090  26.939  28.888   3.145
 4985PAPS   C1B56091  28.071  28.305   3.599
 4985PAPS   C2B56092  27.691  28.351   3.903
 4985PAPS   C3B56093  27.436  28.542   4.301
 4985PAPS   C4B56094  27.620  28.893   4.588
 4986PAPS   CNO56095  28.575   6.160   2.889
 4986PAPS   PO456096  28.551   6.105   3.260
 4986PAPS   GL156097  28.637   6.441   3.557
 4986PAPS   GL256098  28.367   6.483   3.560
 4986PAPS   C1A56099  28.822   6.525   3.888
 4986PAPS   D2A56100  28.793   6.199   4.171
 4986PAPS   D3A56101  29.175   6.288   4.302
 4986PAPS   D4A56102  29.372   6.671   4.545
 4986PAPS   C5A56103  29.807   6.632   4.738
 4986PAPS   C1B56104  28.122   6.311   3.929
 4986PAPS   C2B56105  27.840   6.323   4.337
 4986PAPS   C3B56106  27.687   6.336   4.802
 4986PAPS   C4B56107  27.577   6.033   5.208
 4987PAPS   CNO56108   7.753  25.266   2.696
 4987PAPS   PO456109   7.628  25.483   2.987
 4987PAPS   GL156110   7.713  25.546   3.353
 4987PAPS   GL256111   7.431  25.424   3.422
 4987PAPS   C1A56112   7.774  25.765   3.652
 4987PAPS   D2A56113   7.941  25.726   4.019
 4987PAPS   D3A56114   7.958  25.427   4.285
 4987PAPS   D4A56115   7.840  25.300   4.735
 4987PAPS   C5A56116   7.922  25.782   4.899
 4987PAPS   C1B56117   7.422  25.482   3.890
 4987PAPS   C2B56118   7.544  25.744   4.296
 4987PAPS   C3B56119   7.568  26.051   4.662
 4987PAPS   C4B56120   7.547  26.451   5.030
 4988PAPS   CNO56121  30.576  30.658   3.029
 4988PAPS   PO456122  30.427  30.356   3.232
 4988PAPS   GL156123  30.295  30.393   3.616
 4988PAPS   GL256124  30.453  30.154   3.767
 4988PAPS   C1A56125  30.436  30.560   3.859
 4988PAPS   D2A56126  30.762  30.483   3.996
 4988PAPS   D3A56127  30.673  30.426   4.435
 4988PAPS   D4A56128  30.564  30.214   4.854
 4988PAPS   C5A56129  30.451  30.391   5.325
 4988PAPS   C1B56130  30.358  30.293   4.180
 4988PAPS   C2B56131  30.068  30.459   4.604
 4988PAPS   C3B56132  29.710  30.742   4.799
 4988PAPS   C4B56133  29.342  31.037   4.692
 4989PAPS   CNO56134   3.306  14.016   3.833
 4989PAPS   PO456135   3.051  14.007   4.074
 4989PAPS   GL156136   3.122  13.942   4.566
 4989PAPS   GL256137   3.016  13.701   4.572
 4989PAPS   C1A56138   3.217  13.995   4.882
 4989PAPS   D2A56139   3.072  14.094   5.238
 4989PAPS   D3A56140   3.123  14.340   5.570
 4989PAPS   D4A56141   3.205  14.213   5.947
 4989PAPS   C5A56142   2.897  14.137   6.313
 4989PAPS   C1B56143   3.192  13.574   4.943
 4989PAPS   C2B56144   3.206  13.213   5.299
 4989PAPS   C3B56145   3.260  13.082   5.775
 4989PAPS   C4B56146   3.206  13.291   6.258
 4990PAPS   CNO56147  25.126  14.782   3.793
 4990PAPS   PO456148  24.914  14.494   3.857
 4990PAPS   GL156149  25.022  14.316   4.265
 4990PAPS   GL256150  25.227  14.464   4.164
 4990PAPS   C1A56151  25.224  14.244   4.622
 4990PAPS   D2A56152  25.173  14.365   4.970
 4990PAPS   D3A56153  25.108  14.115   5.359
 4990PAPS   D4A56154  25.424  14.420   5.558
 4990PAPS   C5A56155  25.545  14.138   5.882
 4990PAPS   C1B56156  25.576  14.531   4.482
 4990PAPS   C2B56157  25.796  14.512   4.950
 4990PAPS   C3B56158  25.934  14.557   5.384
 4990PAPS   C4B56159  26.259  14.844   5.721
 4991PAPS   CNO56160   6.854   7.877   3.022
 4991PAPS   PO456161   7.036   7.818   3.317
 4991PAPS   GL156162   7.010   7.981   3.731
 4991PAPS   GL256163   6.798   7.717   3.784
 4991PAPS   C1A56164   7.328   8.189   3.826
 4991PAPS   D2A56165   7.467   8.537   3.977
 4991PAPS   D3A56166   7.466   8.976   4.017
 4991PAPS   D4A56167   7.137   9.053   3.796
 4991PAPS   C5A56168   6.863   9.101   4.133
 4991PAPS   C1B56169   6.713   7.700   4.200
 4991PAPS   C2B56170   6.446   7.728   4.623
 4991PAPS   C3B56171   6.115   7.874   4.890
 4991PAPS   C4B56172   5.745   7.830   5.130
 4992PAPS   CNO56173   3.311  22.156   3.568
 4992PAPS   PO456174   2.993  22.142   3.807
 4992PAPS   GL156175   2.972  21.950   4.146
 4992PAPS   GL256176   3.241  22.201   4.185
 4992PAPS   C1A56177   2.806  21.744   4.371
 4992PAPS   D2A56178   2.630  21.500   4.603
 4992PAPS   D3A56179   2.680  21.045   4.680
 4992PAPS   D4A56180   2.647  20.863   5.127
 4992PAPS   C5A56181   2.421  20.680   5.358
 4992PAPS   C1B56182   3.588  22.040   4.433
 4992PAPS   C2B56183   3.828  22.071   4.852
 4992PAPS   C3B56184   4.175  22.279   5.033
 4992PAPS   C4B56185   4.389  22.567   5.285
 4993PAPS   CNO56186  27.773  30.383   2.352
 4993PAPS   PO456187  27.639  30.208   2.630
 4993PAPS   GL156188  27.804  30.072   3.002
 4993PAPS   GL256189  27.786  30.346   3.130
 4993PAPS   C1A56190  27.637  29.893   3.241
 4993PAPS   D2A56191  27.475  29.686   3.546
 4993PAPS   D3A56192  27.346  29.560   4.011
 4993PAPS   D4A56193  27.314  29.278   4.347
 4993PAPS   C5A56194  27.522  28.972   4.061
 4993PAPS   C1B56195  27.804  30.429   3.546
 4993PAPS   C2B56196  27.673  30.570   4.055
 4993PAPS   C3B56197  27.319  30.584   4.425
 4993PAPS   C4B56198  27.137  30.504   4.840
 4994PAPS   CNO56199  33.075  32.382   3.374
 4994PAPS   PO456200  33.292  32.643   3.297
 4994PAPS   GL156201  33.352  32.725   3.740
 4994PAPS   GL256202  33.168  32.542   3.822
 4994PAPS   C1A56203  33.233  33.029   3.928
 4994PAPS   D2A56204  33.179  33.235   4.275
 4994PAPS   D3A56205  33.511  33.235   4.564
 4994PAPS   D4A56206  33.727  32.972   4.845
 4994PAPS   C5A56207  34.130  32.796   5.067
 4994PAPS   C1B56208  33.052  32.329   4.271
 4994PAPS   C2B56209  32.894  32.079   4.704
 4994PAPS   C3B56210  32.750  31.836   5.085
 4994PAPS   C4B56211  32.945  31.956   5.479
 4995PAPS   CNO56212  31.283  33.598   2.874
 4995PAPS   PO456213  31.601  33.609   3.061
 4995PAPS   GL156214  31.358  33.396   3.388
 4995PAPS   GL256215  31.336  33.680   3.400
 4995PAPS   C1A56216  31.576  33.220   3.667
 4995PAPS   D2A56217  31.782  33.125   4.006
 4995PAPS   D3A56218  32.128  33.374   4.246
 4995PAPS   D4A56219  32.191  33.673   4.533
 4995PAPS   C5A56220  31.920  33.804   4.868
 4995PAPS   C1B56221  31.151  33.789   3.803
 4995PAPS   C2B56222  31.155  33.890   4.341
 4995PAPS   C3B56223  31.406  33.873   4.710
 4995PAPS   C4B56224  31.557  34.044   5.146
 4996PAPS   CNO56225  12.899  12.737   2.866
 4996PAPS   PO456226  13.036  12.411   3.131
 4996PAPS   GL156227  12.979  12.338   3.546
 4996PAPS   GL256228  12.803  12.574   3.615
 4996PAPS   C1A56229  13.235  12.181   3.834
 4996PAPS   D2A56230  13.416  12.028   4.143
 4996PAPS   D3A56231  13.430  12.093   4.597
 4996PAPS   D4A56232  13.361  12.324   4.955
 4996PAPS   C5A56233  12.993  12.317   5.257
 4996PAPS   C1B56234  12.735  12.791   3.982
 4996PAPS   C2B56235  12.737  12.946   4.463
 4996PAPS   C3B56236  12.581  12.829   4.856
 4996PAPS   C4B56237  12.418  12.986   5.317
 4997PAPS   CNO56238  18.738   1.180   3.298
 4997PAPS   PO456239  19.115   1.033   3.406
 4997PAPS   GL156240  19.001   0.991   3.745
 4997PAPS   GL256241  18.701   1.057   3.735
 4997PAPS   C1A56242  19.062   0.913   4.088
 4997PAPS   D2A56243  18.883   0.736   4.374
 4997PAPS   D3A56244  18.382   0.670   4.388
 4997PAPS   D4A56245  18.295   0.361   4.768
 4997PAPS   C5A56246  18.099   0.075   5.071
 4997PAPS   C1B56247  18.670   1.088   4.177
 4997PAPS   C2B56248  18.521   1.098   4.653
 4997PAPS   C3B56249  18.429   1.153   5.084
 4997PAPS   C4B56250  18.234   0.978   5.459
 4998PAPS   CNO56251  33.099   9.729   2.917
 4998PAPS   PO456252  32.797   9.679   3.163
 4998PAPS   GL156253  32.931   9.501   3.479
 4998PAPS   GL256254  33.222   9.519   3.437
 4998PAPS   C1A56255  32.755   9.624   3.787
 4998PAPS   D2A56256  32.429   9.576   4.054
 4998PAPS   D3A56257  32.000   9.476   4.208
 4998PAPS   D4A56258  31.913   9.089   4.338
 4998PAPS   C5A56259  31.546   8.706   4.211
 4998PAPS   C1B56260  33.544   9.588   3.744
 4998PAPS   C2B56261  33.781   9.968   4.110
 4998PAPS   C3B56262  33.768  10.344   4.464
 4998PAPS   C4B56263  33.747  10.595   4.902
 4999PAPS   CNO56264  11.622  20.743   2.567
 4999PAPS   PO456265  11.675  20.662   2.955
 4999PAPS   GL156266  11.569  20.917   3.139
 4999PAPS   GL256267  11.423  20.807   3.338
 4999PAPS   C1A56268  11.448  21.235   3.181
 4999PAPS   D2A56269  11.502  21.630   3.276
 4999PAPS   D3A56270  11.807  21.419   3.549
 4999PAPS   D4A56271  12.077  21.607   3.806
 4999PAPS   C5A56272  12.102  21.892   4.258
 4999PAPS   C1B56273  11.813  20.987   3.611
 4999PAPS   C2B56274  12.073  21.177   4.082
 4999PAPS   C3B56275  12.225  21.428   4.454
 4999PAPS   C4B56276  12.259  21.925   4.687
 5000PAPS   CNO56277   7.320   3.278   2.815
 5000PAPS   PO456278   7.017   3.328   3.081
 5000PAPS   GL156279   7.050   3.361   3.480
 5000PAPS   GL256280   6.827   3.535   3.601
 5000PAPS   C1A56281   7.005   3.092   3.668
 5000PAPS   D2A56282   7.205   3.126   4.044
 5000PAPS   D3A56283   7.229   3.213   4.507
 5000PAPS   D4A56284   7.416   3.658   4.552
 5000PAPS   C5A56285   7.633   3.593   4.906
 5000PAPS   C1B56286   6.878   3.447   4.038
 5000PAPS   C2B56287   6.776   3.408   4.519
 5000PAPS   C3B56288   7.014   3.477   4.910
 5000PAPS   C4B56289   7.295   3.310   5.233
 5001PAPS   CNO56290  12.659   2.484   2.887
 5001PAPS   PO456291  12.508   2.141   2.993
 5001PAPS   GL156292  12.537   2.145   3.425
 5001PAPS   GL256293  12.734   1.931   3.496
 5001PAPS   C1A56294  12.289   2.000   3.663
 5001PAPS   D2A56295  12.189   1.919   4.012
 5001PAPS   D3A56296  12.142   1.620   4.397
 5001PAPS   D4A56297  12.108   1.924   4.789
 5001PAPS   C5A56298  11.714   1.869   4.501
 5001PAPS   C1B56299  12.705   1.846   3.868
 5001PAPS   C2B56300  12.651   1.785   4.456
 5001PAPS   C3B56301  12.933   1.667   4.808
 5001PAPS   C4B56302  13.257   1.560   5.197
 5002PAPS   CNO56303  30.040  13.049   3.400
 5002PAPS   PO456304  30.319  13.046   3.609
 5002PAPS   GL156305  30.407  13.155   3.978
 5002PAPS   GL256306  30.160  12.917   4.029
 5002PAPS   C1A56307  30.298  13.232   4.310
 5002PAPS   D2A56308  30.139  13.523   4.616
 5002PAPS   D3A56309  30.384  13.694   4.987
 5002PAPS   D4A56310  30.506  13.964   5.329
 5002PAPS   C5A56311  30.455  14.422   5.100
 5002PAPS   C1B56312  29.897  13.083   4.371
 5002PAPS   C2B56313  29.770  13.594   4.314
 5002PAPS   C3B56314  29.726  14.152   4.404
 5002PAPS   C4B56315  29.677  14.615   4.568
 5003PAPS   CNO56316  26.526   2.057   2.945
 5003PAPS   PO456317  26.647   2.121   3.321
 5003PAPS   GL156318  26.307   2.088   3.602
 5003PAPS   GL256319  26.318   2.352   3.604
 5003PAPS   C1A56320  26.518   1.981   3.836
 5003PAPS   D2A56321  26.802   1.905   4.101
 5003PAPS   D3A56322  27.185   2.091   4.184
 5003PAPS   D4A56323  27.213   2.012   4.634
 5003PAPS   C5A56324  27.077   2.246   5.041
 5003PAPS   C1B56325  26.561   2.431   3.981
 5003PAPS   C2B56326  27.050   2.580   4.217
 5003PAPS   C3B56327  27.498   2.501   4.385
 5003PAPS   C4B56328  27.960   2.576   4.319
 5004PAPS   CNO56329  30.363  31.788   3.301
 5004PAPS   PO456330  30.275  32.044   3.074
 5004PAPS   GL156331  30.188  32.383   3.424
 5004PAPS   GL256332  30.315  32.102   3.643
 5004PAPS   C1A56333  30.275  32.731   3.436
 5004PAPS   D2A56334  30.364  33.067   3.654
 5004PAPS   D3A56335  30.020  33.344   3.744
 5004PAPS   D4A56336  29.925  33.749   3.942
 5004PAPS   C5A56337  29.807  33.373   4.338
 5004PAPS   C1B56338  30.250  32.122   4.104
 5004PAPS   C2B56339  30.226  32.207   4.573
 5004PAPS   C3B56340  30.095  32.011   4.985
 5004PAPS   C4B56341  29.793  31.860   5.365
 5005PAPS   CNO56342  35.334   9.841   2.887
 5005PAPS   PO456343  35.354   9.552   3.172
 5005PAPS   GL156344  35.228   9.754   3.528
 5005PAPS   GL256345  34.976   9.769   3.436
 5005PAPS   C1A56346  35.111   9.461   3.798
 5005PAPS   D2A56347  35.254   9.168   3.978
 5005PAPS   D3A56348  34.814   9.018   3.881
 5005PAPS   D4A56349  34.401   8.793   3.908
 5005PAPS   C5A56350  34.180   8.710   4.336
 5005PAPS   C1B56351  34.736   9.942   3.764
 5005PAPS   C2B56352  34.484   9.871   4.268
 5005PAPS   C3B56353  34.242   9.593   4.470
 5005PAPS   C4B56354  33.901   9.423   4.715
 5006PAPS   CNO56355  21.564  11.782   3.688
 5006PAPS   PO456356  21.652  12.121   3.798
 5006PAPS   GL156357  21.554  12.175   4.182
 5006PAPS   GL256358  21.263  12.136   4.023
 5006PAPS   C1A56359  21.415  12.258   4.572
 5006PAPS   D2A56360  21.215  12.127   4.917
 5006PAPS   D3A56361  21.435  12.478   5.033
 5006PAPS   D4A56362  21.428  12.760   5.387
 5006PAPS   C5A56363  21.195  12.290   5.433
 5006PAPS   C1B56364  20.833  12.181   4.183
 5006PAPS   C2B56365  20.464  12.384   4.469
 5006PAPS   C3B56366  20.340  12.307   4.941
 5006PAPS   C4B56367  20.291  12.206   5.472
 5007PAPS   CNO56368   9.704  26.430   2.703
 5007PAPS   PO456369  10.067  26.300   2.773
 5007PAPS   GL156370  10.263  26.419   3.104
 5007PAPS   GL256371  10.165  26.690   3.174
 5007PAPS   C1A56372  10.547  26.289   3.314
 5007PAPS   D2A56373  10.613  25.951   3.521
 5007PAPS   D3A56374  10.825  25.579   3.689
 5007PAPS   D4A56375  10.591  25.172   3.617
 5007PAPS   C5A56376  10.878  24.801   3.863
 5007PAPS   C1B56377  10.136  26.670   3.580
 5007PAPS   C2B56378  10.211  26.602   4.075
 5007PAPS   C3B56379  10.159  26.986   4.363
 5007PAPS   C4B56380   9.731  27.111   4.568
 5008PAPS   CNO56381  30.458  12.561   3.469
 5008PAPS   PO456382  30.375  12.525   3.847
 5008PAPS   GL156383  30.544  12.796   4.249
 5008PAPS   GL256384  30.455  12.453   4.285
 5008PAPS   C1A56385  30.355  12.839   4.546
 5008PAPS   D2A56386  30.136  12.743   4.887
 5008PAPS   D3A56387  29.911  12.909   5.218
 5008PAPS   D4A56388  29.735  13.337   5.232
 5008PAPS   C5A56389  29.801  13.156   4.790
 5008PAPS   C1B56390  30.417  12.386   4.730
 5008PAPS   C2B56391  30.406  12.472   5.243
 5008PAPS   C3B56392  30.315  12.610   5.740
 5008PAPS   C4B56393  30.061  12.619   6.145
 5009PAPS   CNO56394  19.670  25.176   3.444
 5009PAPS   PO456395  19.325  25.330   3.478
 5009PAPS   GL156396  19.182  25.187   3.912
 5009PAPS   GL256397  19.473  25.217   3.958
 5009PAPS   C1A56398  19.102  25.074   4.281
 5009PAPS   D2A56399  19.116  25.095   4.640
 5009PAPS   D3A56400  19.477  25.426   4.710
 5009PAPS   D4A56401  19.674  25.781   4.972
 5009PAPS   C5A56402  19.638  26.212   5.148
 5009PAPS   C1B56403  19.526  25.023   4.344
 5009PAPS   C2B56404  19.528  24.957   4.869
 5009PAPS   C3B56405  19.344  24.877   5.308
 5009PAPS   C4B56406  19.362  24.834   5.749
 5010PAPS   CNO56407  25.819   9.886   3.492
 5010PAPS   PO456408  25.811  10.170   3.664
 5010PAPS   GL156409  26.108  10.102   3.944
 5010PAPS   GL256410  25.977   9.778   3.930
 5010PAPS   C1A56411  26.157  10.129   4.371
 5010PAPS   D2A56412  25.978  10.286   4.673
 5010PAPS   D3A56413  25.950  10.626   4.956
 5010PAPS   D4A56414  25.922  11.052   5.077
 5010PAPS   C5A56415  25.438  11.133   5.278
 5010PAPS   C1B56416  25.983   9.615   4.315
 5010PAPS   C2B56417  26.000   9.381   4.771
 5010PAPS   C3B56418  25.794   9.074   5.136
 5010PAPS   C4B56419  25.494   9.182   5.547
 5011PAPS   CNO56420  29.971   5.225   3.322
 5011PAPS   PO456421  29.717   4.940   3.330
 5011PAPS   GL156422  29.409   5.063   3.650
 5011PAPS   GL256423  29.646   5.173   3.775
 5011PAPS   C1A56424  29.181   4.935   3.937
 5011PAPS   D2A56425  28.982   4.633   4.155
 5011PAPS   D3A56426  28.982   4.705   4.597
 5011PAPS   D4A56427  29.238   4.548   4.924
 5011PAPS   C5A56428  29.519   4.623   5.323
 5011PAPS   C1B56429  29.580   4.922   4.163
 5011PAPS   C2B56430  29.364   4.474   4.396
 5011PAPS   C3B56431  28.988   4.242   4.643
 5011PAPS   C4B56432  28.646   4.038   5.005
 5012PAPS   CNO56433   1.824   3.551   2.750
 5012PAPS   PO456434   1.800   3.302   3.012
 5012PAPS   GL156435   1.757   3.311   3.392
 5012PAPS   GL256436   1.616   3.546   3.519
 5012PAPS   C1A56437   2.085   3.278   3.504
 5012PAPS   D2A56438   2.279   3.599   3.600
 5012PAPS   D3A56439   2.543   3.378   4.016
 5012PAPS   D4A56440   2.531   3.264   4.456
 5012PAPS   C5A56441   3.019   3.341   4.611
 5012PAPS   C1B56442   1.725   3.484   3.969
 5012PAPS   C2B56443   1.739   3.657   4.463
 5012PAPS   C3B56444   1.846   3.930   4.821
 5012PAPS   C4B56445   2.084   4.215   5.048
 5013PAPS   CNO56446   3.531  23.316   3.553
 5013PAPS   PO456447   3.569  23.048   3.813
 5013PAPS   GL156448   3.350  22.938   4.167
 5013PAPS   GL256449   3.518  23.218   4.339
 5013PAPS   C1A56450   3.172  22.643   4.192
 5013PAPS   D2A56451   2.845  22.530   4.256
 5013PAPS   D3A56452   2.900  22.138   4.551
 5013PAPS   D4A56453   2.676  21.988   4.838
 5013PAPS   C5A56454   2.423  22.326   5.093
 5013PAPS   C1B56455   3.763  23.306   4.647
 5013PAPS   C2B56456   3.967  23.617   5.056
 5013PAPS   C3B56457   3.823  24.011   5.326
 5013PAPS   C4B56458   3.616  24.338   5.633
 5014PAPS   CNO56459   9.508   8.280   3.287
 5014PAPS   PO456460   9.443   8.663   3.315
 5014PAPS   GL156461   9.362   8.679   3.737
 5014PAPS   GL256462   9.432   8.371   3.788
 5014PAPS   C1A56463   9.464   8.933   3.987
 5014PAPS   D2A56464   9.729   8.652   4.032
 5014PAPS   D3A56465  10.080   8.755   4.267
 5014PAPS   D4A56466  10.510   8.861   4.436
 5014PAPS   C5A56467  10.719   8.869   4.870
 5014PAPS   C1B56468   9.289   8.404   4.217
 5014PAPS   C2B56469   9.293   8.374   4.766
 5014PAPS   C3B56470   8.869   8.182   4.951
 5014PAPS   C4B56471   8.420   8.315   4.942
 5015PAPS   CNO56472  28.985  34.490   3.220
 5015PAPS   PO456473  28.778  34.189   3.341
 5015PAPS   GL156474  28.835  33.866   3.594
 5015PAPS   GL256475  28.823  34.072   3.821
 5015PAPS   C1A56476  29.118  33.636   3.772
 5015PAPS   D2A56477  29.256  33.595   4.178
 5015PAPS   D3A56478  29.251  33.818   4.595
 5015PAPS   D4A56479  28.861  33.960   4.761
 5015PAPS   C5A56480  28.481  34.245   4.677
 5015PAPS   C1B56481  29.118  34.160   4.098
 5015PAPS   C2B56482  29.424  34.348   4.506
 5015PAPS   C3B56483  29.361  34.370   5.010
 5015PAPS   C4B56484  29.255  34.734   5.310
 5016PAPS   CNO56485   2.592  25.909   3.507
 5016PAPS   PO456486   2.904  26.025   3.668
 5016PAPS   GL156487   2.981  26.146   4.098
 5016PAPS   GL256488   2.715  26.083   4.195
 5016PAPS   C1A56489   3.217  26.397   4.197
 5016PAPS   D2A56490   3.584  26.453   4.269
 5016PAPS   D3A56491   3.840  26.488   4.615
 5016PAPS   D4A56492   4.058  26.634   5.025
 5016PAPS   C5A56493   3.597  26.765   5.199
 5016PAPS   C1B56494   2.583  25.914   4.600
 5016PAPS   C2B56495   2.928  25.820   4.992
 5016PAPS   C3B56496   3.370  25.719   5.130
 5016PAPS   C4B56497   3.819  25.877   5.120
 5017PAPS   CNO56498  19.260  17.957   3.239
 5017PAPS   PO456499  19.097  18.094   3.536
 5017PAPS   GL156500  18.761  17.978   3.792
 5017PAPS   GL256501  18.946  17.874   3.937
 5017PAPS   C1A56502  18.568  18.025   4.090
 5017PAPS   D2A56503  18.469  18.214   4.462
 5017PAPS   D3A56504  18.368  18.216   4.878
 5017PAPS   D4A56505  18.347  18.560   5.209
 5017PAPS   C5A56506  18.066  18.918   5.337
 5017PAPS   C1B56507  18.891  17.870   4.398
 5017PAPS   C2B56508  18.823  18.038   4.907
 5017PAPS   C3B56509  18.703  18.059   5.303
 5017PAPS   C4B56510  18.410  18.179   5.653
 5018PAPS   CNO56511  14.098  35.696   2.816
 5018PAPS   PO456512  13.830  35.649   3.115
 5018PAPS   GL156513  13.697  35.973   3.408
 5018PAPS   GL256514  13.503  35.742   3.444
 5018PAPS   C1A56515  13.958  35.901   3.553
 5018PAPS   D2A56516  14.209  35.704   3.815
 5018PAPS   D3A56517  14.587  35.567   3.871
 5018PAPS   D4A56518  15.026  35.578   3.767
 5018PAPS   C5A56519  15.164  35.374   4.151
 5018PAPS   C1B56520  13.353  35.338   3.698
 5018PAPS   C2B56521  13.325  35.091   4.117
 5018PAPS   C3B56522  13.424  35.198   4.566
 5018PAPS   C4B56523  13.364  35.172   5.059
 5019PAPS   CNO56524  25.553  27.731   2.711
 5019PAPS   PO456525  25.598  27.714   3.079
 5019PAPS   GL156526  25.457  27.802   3.403
 5019PAPS   GL256527  25.246  27.994   3.545
 5019PAPS   C1A56528  25.692  27.738   3.688
 5019PAPS   D2A56529  25.804  27.791   4.067
 5019PAPS   D3A56530  26.102  28.027   4.327
 5019PAPS   D4A56531  26.231  28.437   4.095
 5019PAPS   C5A56532  26.487  28.792   4.162
 5019PAPS   C1B56533  25.334  27.967   3.928
 5019PAPS   C2B56534  25.536  28.030   4.460
 5019PAPS   C3B56535  25.891  28.365   4.581
 5019PAPS   C4B56536  26.265  28.767   4.575
 5020PAPS   CNO56537  27.115  14.419   2.944
 5020PAPS   PO456538  27.205  14.763   3.122
 5020PAPS   GL156539  27.530  14.823   3.392
 5020PAPS   GL256540  27.439  14.684   3.608
 5020PAPS   C1A56541  27.845  15.028   3.507
 5020PAPS   D2A56542  28.183  14.915   3.757
 5020PAPS   D3A56543  28.574  14.774   3.787
 5020PAPS   D4A56544  28.757  14.827   4.209
 5020PAPS   C5A56545  28.666  15.127   4.587
 5020PAPS   C1B56546  27.271  14.704   4.050
 5020PAPS   C2B56547  27.281  14.688   4.586
 5020PAPS   C3B56548  27.184  14.583   5.057
 5020PAPS   C4B56549  27.046  14.531   5.524
 5021PAPS   CNO56550  21.998   9.672   3.093
 5021PAPS   PO456551  21.776   9.543   3.355
 5021PAPS   GL156552  21.845   9.558   3.769
 5021PAPS   GL256553  21.808   9.293   3.872
 5021PAPS   C1A56554  22.018   9.651   4.093
 5021PAPS   D2A56555  22.033   9.625   4.472
 5021PAPS   D3A56556  21.788   9.518   4.799
 5021PAPS   D4A56557  21.792   9.559   5.239
 5021PAPS   C5A56558  21.764   9.039   5.284
 5021PAPS   C1B56559  21.636   9.229   4.326
 5021PAPS   C2B56560  21.499   9.016   4.760
 5021PAPS   C3B56561  21.302   8.769   5.132
 5021PAPS   C4B56562  21.131   8.444   5.440
 5022PAPS   CNO56563  15.929  14.452   3.103
 5022PAPS   PO456564  15.878  14.770   3.345
 5022PAPS   GL156565  15.725  14.846   3.838
 5022PAPS   GL256566  16.003  14.828   3.822
 5022PAPS   C1A56567  15.557  14.573   4.041
 5022PAPS   D2A56568  15.188  14.435   4.119
 5022PAPS   D3A56569  15.349  14.675   4.481
 5022PAPS   D4A56570  15.294  15.151   4.501
 5022PAPS   C5A56571  15.363  15.420   4.842
 5022PAPS   C1B56572  16.227  14.788   4.174
 5022PAPS   C2B56573  16.243  14.767   4.695
 5022PAPS   C3B56574  16.382  15.142   4.892
 5022PAPS   C4B56575  16.536  15.444   5.251
 5023PAPS   CNO56576   9.972  13.992   3.133
 5023PAPS   PO456577  10.044  14.295   3.411
 5023PAPS   GL156578  10.032  14.163   3.809
 5023PAPS   GL256579   9.728  14.275   3.815
 5023PAPS   C1A56580  10.089  14.068   4.173
 5023PAPS   D2A56581   9.996  14.383   4.374
 5023PAPS   D3A56582   9.687  14.591   4.475
 5023PAPS   D4A56583   9.296  14.879   4.448
 5023PAPS   C5A56584   9.279  14.726   4.892
 5023PAPS   C1B56585   9.564  14.259   4.233
 5023PAPS   C2B56586   9.375  14.166   4.674
 5023PAPS   C3B56587   9.055  13.995   5.012
 5023PAPS   C4B56588   8.621  13.688   5.076
 5024PAPS   CNO56589  30.212   4.803   3.243
 5024PAPS   PO456590  30.570   4.729   3.292
 5024PAPS   GL156591  30.545   4.646   3.665
 5024PAPS   GL256592  30.327   4.493   3.781
 5024PAPS   C1A56593  30.812   4.894   3.766
 5024PAPS   D2A56594  31.048   5.190   3.770
 5024PAPS   D3A56595  31.507   5.245   3.795
 5024PAPS   D4A56596  31.711   5.097   4.134
 5024PAPS   C5A56597  32.087   5.168   4.395
 5024PAPS   C1B56598  30.382   4.260   4.178
 5024PAPS   C2B56599  30.328   4.237   4.715
 5024PAPS   C3B56600  30.218   4.273   5.134
 5024PAPS   C4B56601  29.930   4.331   5.579
 5025PAPS   CNO56602  34.397  15.511   3.685
 5025PAPS   PO456603  34.254  15.807   3.488
 5025PAPS   GL156604  34.021  15.771   3.879
 5025PAPS   GL256605  33.862  15.574   3.767
 5025PAPS   C1A56606  34.083  15.837   4.224
 5025PAPS   D2A56607  34.041  16.194   4.421
 5025PAPS   D3A56608  34.509  16.397   4.407
 5025PAPS   D4A56609  34.922  16.207   4.549
 5025PAPS   C5A56610  35.116  16.028   4.955
 5025PAPS   C1B56611  33.672  15.427   4.166
 5025PAPS   C2B56612  33.667  15.192   4.628
 5025PAPS   C3B56613  33.615  14.992   5.071
 5025PAPS   C4B56614  33.607  14.952   5.523
 5026PAPS   CNO56615   0.270  14.433   3.290
 5026PAPS   PO456616   0.520  14.520   3.523
 5026PAPS   GL156617   0.490  14.636   3.925
 5026PAPS   GL256618   0.662  14.487   4.078
 5026PAPS   C1A56619   0.186  14.781   4.129
 5026PAPS   D2A56620  -0.154  14.926   4.305
 5026PAPS   D3A56621   0.020  15.025   4.727
 5026PAPS   D4A56622   0.308  15.278   4.885
 5026PAPS   C5A56623   0.474  15.517   5.347
 5026PAPS   C1B56624   0.474  14.407   4.521
 5026PAPS   C2B56625   0.492  14.334   5.086
 5026PAPS   C3B56626   0.497  14.247   5.525
 5026PAPS   C4B56627   0.662  13.857   5.815
 5027PAPS   CNO56628  29.264  14.947   3.126
 5027PAPS   PO456629  29.369  14.978   3.504
 5027PAPS   GL156630  29.070  14.816   3.805
 5027PAPS   GL256631  28.954  15.054   3.872
 5027PAPS   C1A56632  29.319  14.894   4.090
 5027PAPS   D2A56633  29.589  15.029   4.300
 5027PAPS   D3A56634  29.757  15.172   4.636
 5027PAPS   D4A56635  29.908  15.383   5.082
 5027PAPS   C5A56636  30.366  15.272   5.209
 5027PAPS   C1B56637  29.083  15.145   4.304
 5027PAPS   C2B56638  29.226  15.200   4.801
 5027PAPS   C3B56639  29.169  15.221   5.271
 5027PAPS   C4B56640  28.906  15.226   5.632
 5028PAPS   CNO56641   2.917  35.357   3.313
 5028PAPS   PO456642   3.058  35.043   3.514
 5028PAPS   GL156643   3.112  35.081   3.892
 5028PAPS   GL256644   2.910  35.344   3.956
 5028PAPS   C1A56645   3.427  35.029   3.987
 5028PAPS   D2A56646   3.739  35.121   3.786
 5028PAPS   D3A56647   4.144  35.087   3.896
 5028PAPS   D4A56648   4.090  35.043   4.391
 5028PAPS   C5A56649   4.269  34.628   4.640
 5028PAPS   C1B56650   2.906  35.573   4.329
 5028PAPS   C2B56651   3.209  35.761   4.676
 5028PAPS   C3B56652   3.317  35.972   5.068
 5028PAPS   C4B56653   3.532  36.099   5.472
 5029PAPS   CNO56654  31.770  28.859   3.367
 5029PAPS   PO456655  31.893  29.154   3.574
 5029PAPS   GL156656  32.142  29.099   3.918
 5029PAPS   GL256657  32.057  29.359   4.043
 5029PAPS   C1A56658  32.184  28.921   4.264
 5029PAPS   D2A56659  32.345  28.532   4.193
 5029PAPS   D3A56660  32.441  28.293   4.612
 5029PAPS   D4A56661  32.493  28.304   5.011
 5029PAPS   C5A56662  32.148  28.449   5.204
 5029PAPS   C1B56663  31.721  29.551   4.218
 5029PAPS   C2B56664  31.339  29.571   4.653
 5029PAPS   C3B56665  31.160  29.524   5.144
 5029PAPS   C4B56666  31.184  29.297   5.622
 5030PAPS   CNO56667  28.993  19.561   2.613
 5030PAPS   PO456668  29.069  19.257   2.856
 5030PAPS   GL156669  29.282  19.447   3.195
 5030PAPS   GL256670  29.236  19.230   3.415
 5030PAPS   C1A56671  29.408  19.790   3.350
 5030PAPS   D2A56672  29.605  19.915   3.681
 5030PAPS   D3A56673  29.675  19.767   4.130
 5030PAPS   D4A56674  29.608  19.693   4.557
 5030PAPS   C5A56675  29.232  19.883   4.823
 5030PAPS   C1B56676  29.093  19.362   3.766
 5030PAPS   C2B56677  28.820  19.377   4.253
 5030PAPS   C3B56678  28.680  19.327   4.688
 5030PAPS   C4B56679  28.530  19.335   5.171
 5031PAPS   CNO56680   9.997  28.045   3.088
 5031PAPS   PO456681   9.661  28.288   3.210
 5031PAPS   GL156682   9.705  28.139   3.623
 5031PAPS   GL256683   9.956  28.230   3.558
 5031PAPS   C1A56684   9.723  27.830   3.837
 5031PAPS   D2A56685   9.477  27.526   3.815
 5031PAPS   D3A56686   9.356  27.594   4.281
 5031PAPS   D4A56687   9.001  27.883   4.248
 5031PAPS   C5A56688   8.843  28.046   4.714
 5031PAPS   C1B56689   9.881  28.318   3.955
 5031PAPS   C2B56690   9.747  28.532   4.446
 5031PAPS   C3B56691   9.898  28.745   4.852
 5031PAPS   C4B56692  10.001  28.803   5.304
 5032PAPS   CNO56693  22.519  29.608   3.301
 5032PAPS   PO456694  22.145  29.551   3.383
 5032PAPS   GL156695  21.897  29.657   3.810
 5032PAPS   GL256696  22.149  29.613   3.819
 5032PAPS   C1A56697  21.784  29.431   4.105
 5032PAPS   D2A56698  21.683  29.132   4.239
 5032PAPS   D3A56699  21.425  28.904   4.539
 5032PAPS   D4A56700  21.423  28.738   4.985
 5032PAPS   C5A56701  21.424  29.107   5.352
 5032PAPS   C1B56702  22.196  29.677   4.187
 5032PAPS   C2B56703  22.483  29.745   4.577
 5032PAPS   C3B56704  22.604  29.704   4.964
 5032PAPS   C4B56705  22.710  29.528   5.479
 5033PAPS   CNO56706  21.338  11.330   3.814
 5033PAPS   PO456707  21.696  11.345   3.924
 5033PAPS   GL156708  21.723  11.091   4.289
 5033PAPS   GL256709  21.632  11.341   4.470
 5033PAPS   C1A56710  21.546  10.818   4.422
 5033PAPS   D2A56711  21.310  10.965   4.696
 5033PAPS   D3A56712  20.978  11.183   4.566
 5033PAPS   D4A56713  20.596  10.990   4.710
 5033PAPS   C5A56714  20.428  11.090   5.154
 5033PAPS   C1B56715  21.679  11.200   4.864
 5033PAPS   C2B56716  21.285  11.150   5.162
 5033PAPS   C3B56717  20.930  11.195   5.448
 5033PAPS   C4B56718  20.532  10.993   5.717
 5034PAPS   CNO56719   1.882  34.309   3.130
 5034PAPS   PO456720   2.175  34.445   3.291
 5034PAPS   GL156721   2.131  34.376   3.719
 5034PAPS   GL256722   2.054  34.633   3.862
 5034PAPS   C1A56723   2.153  34.060   3.910
 5034PAPS   D2A56724   2.225  33.718   4.132
 5034PAPS   D3A56725   2.032  33.649   4.498
 5034PAPS   D4A56726   1.923  33.443   4.875
 5034PAPS   C5A56727   2.070  33.502   5.331
 5034PAPS   C1B56728   2.121  34.678   4.278
 5034PAPS   C2B56729   1.949  34.899   4.665
 5034PAPS   C3B56730   1.907  35.341   4.916
 5034PAPS   C4B56731   1.795  35.779   4.891
 5035PAPS   CNO56732   3.691   7.944   3.462
 5035PAPS   PO456733   3.423   7.668   3.496
 5035PAPS   GL156734   3.242   7.419   3.813
 5035PAPS   GL256735   3.068   7.625   3.784
 5035PAPS   C1A56736   3.057   7.363   4.100
 5035PAPS   D2A56737   2.861   7.514   4.435
 5035PAPS   D3A56738   2.935   7.604   4.828
 5035PAPS   D4A56739   3.197   7.328   5.011
 5035PAPS   C5A56740   3.267   6.897   4.845
 5035PAPS   C1B56741   2.931   7.859   4.133
 5035PAPS   C2B56742   2.891   8.083   4.607
 5035PAPS   C3B56743   2.918   8.031   5.054
 5035PAPS   C4B56744   2.787   7.966   5.559
 5036PAPS   CNO56745   2.106  18.976   3.623
 5036PAPS   PO456746   1.982  18.651   3.502
 5036PAPS   GL156747   1.740  18.413   3.764
 5036PAPS   GL256748   1.432  18.530   3.779
 5036PAPS   C1A56749   1.664  18.328   4.120
 5036PAPS   D2A56750   1.930  18.326   4.409
 5036PAPS   D3A56751   1.921  18.235   4.831
 5036PAPS   D4A56752   2.092  18.293   5.229
 5036PAPS   C5A56753   2.515  18.572   5.225
 5036PAPS   C1B56754   1.254  18.456   4.209
 5036PAPS   C2B56755   1.391  18.188   4.680
 5036PAPS   C3B56756   1.559  18.039   5.106
 5036PAPS   C4B56757   1.481  17.661   5.375
 5037PAPS   CNO56758   4.040   3.281   3.001
 5037PAPS   PO456759   3.955   3.334   3.377
 5037PAPS   GL156760   4.309   3.438   3.673
 5037PAPS   GL256761   4.296   3.166   3.806
 5037PAPS   C1A56762   4.391   3.738   3.773
 5037PAPS   D2A56763   4.438   3.964   4.068
 5037PAPS   D3A56764   4.700   4.363   3.942
 5037PAPS   D4A56765   4.317   4.437   4.097
 5037PAPS   C5A56766   4.543   4.362   4.512
 5037PAPS   C1B56767   4.420   3.200   4.211
 5037PAPS   C2B56768   4.693   3.110   4.690
 5037PAPS   C3B56769   5.013   3.061   5.056
 5037PAPS   C4B56770   5.199   2.675   5.273
 5038PAPS   CNO56771  18.380   7.372   3.641
 5038PAPS   PO456772  18.556   7.012   3.623
 5038PAPS   GL156773  18.816   7.033   3.995
 5038PAPS   GL256774  18.572   7.272   4.061
 5038PAPS   C1A56775  19.172   7.045   4.156
 5038PAPS   D2A56776  19.356   7.192   4.498
 5038PAPS   D3A56777  19.124   6.852   4.630
 5038PAPS   D4A56778  19.290   6.978   5.033
 5038PAPS   C5A56779  18.936   7.027   5.348
 5038PAPS   C1B56780  18.367   7.377   4.481
 5038PAPS   C2B56781  18.044   7.626   4.827
 5038PAPS   C3B56782  17.709   7.573   5.156
 5038PAPS   C4B56783  17.650   7.734   5.613
 5039PAPS   CNO56784  22.386  26.105   3.249
 5039PAPS   PO456785  22.391  25.759   3.438
 5039PAPS   GL156786  22.568  25.959   3.746
 5039PAPS   GL256787  22.356  25.897   3.982
 5039PAPS   C1A56788  22.814  26.193   3.910
 5039PAPS   D2A56789  22.867  26.448   4.208
 5039PAPS   D3A56790  22.918  26.422   4.622
 5039PAPS   D4A56791  23.079  26.611   4.957
 5039PAPS   C5A56792  22.732  26.803   5.215
 5039PAPS   C1B56793  22.444  25.678   4.363
 5039PAPS   C2B56794  22.159  25.946   4.647
 5039PAPS   C3B56795  21.961  26.121   5.063
 5039PAPS   C4B56796  21.691  26.121   5.476
 5040PAPS   CNO56797   1.746   7.030   2.976
 5040PAPS   PO456798   1.702   6.679   3.044
 5040PAPS   GL156799   1.721   6.558   3.466
 5040PAPS   GL256800   1.405   6.529   3.540
 5040PAPS   C1A56801   1.937   6.450   3.660
 5040PAPS   D2A56802   2.167   6.233   3.876
 5040PAPS   D3A56803   2.307   5.794   4.014
 5040PAPS   D4A56804   2.680   5.624   3.900
 5040PAPS   C5A56805   2.264   5.332   3.813
 5040PAPS   C1B56806   1.330   6.312   3.939
 5040PAPS   C2B56807   1.393   6.090   4.378
 5040PAPS   C3B56808   1.650   6.003   4.801
 5040PAPS   C4B56809   2.059   5.761   5.078
 5041PAPS   CNO56810   8.553  16.202   3.497
 5041PAPS   PO456811   8.785  15.882   3.510
 5041PAPS   GL156812   9.117  15.790   3.788
 5041PAPS   GL256813   8.786  15.748   3.955
 5041PAPS   C1A56814   9.203  15.545   4.045
 5041PAPS   D2A56815   9.280  15.178   3.908
 5041PAPS   D3A56816   9.000  14.815   4.070
 5041PAPS   D4A56817   9.155  14.413   4.189
 5041PAPS   C5A56818   8.914  14.361   4.684
 5041PAPS   C1B56819   8.878  15.731   4.375
 5041PAPS   C2B56820   8.891  15.586   4.868
 5041PAPS   C3B56821   8.952  15.514   5.315
 5041PAPS   C4B56822   9.078  15.585   5.816
 5042PAPS   CNO56823  35.997   8.918   2.981
 5042PAPS   PO456824  35.745   8.908   3.285
 5042PAPS   GL156825  35.815   9.012   3.695
 5042PAPS   GL256826  35.964   8.752   3.774
 5042PAPS   C1A56827  35.661   8.966   4.057
 5042PAPS   D2A56828  35.858   8.778   4.360
 5042PAPS   D3A56829  36.054   9.126   4.187
 5042PAPS   D4A56830  36.500   9.149   4.248
 5042PAPS   C5A56831  36.849   9.331   4.175
 5042PAPS   C1B56832  36.234   8.684   4.179
 5042PAPS   C2B56833  36.309   8.954   4.633
 5042PAPS   C3B56834  36.352   9.358   4.819
 5042PAPS   C4B56835  36.343   9.873   5.022
 5043PAPS   CNO56836  14.654  16.553   3.267
 5043PAPS   PO456837  14.659  16.785   3.564
 5043PAPS   GL156838  14.605  16.751   4.021
 5043PAPS   GL256839  14.935  16.963   4.041
 5043PAPS   C1A56840  14.286  16.715   4.270
 5043PAPS   D2A56841  14.040  16.434   4.322
 5043PAPS   D3A56842  14.382  16.137   4.174
 5043PAPS   D4A56843  14.668  16.372   4.337
 5043PAPS   C5A56844  14.351  16.480   4.716
 5043PAPS   C1B56845  15.084  17.078   4.409
 5043PAPS   C2B56846  15.189  17.318   4.829
 5043PAPS   C3B56847  15.044  17.430   5.231
 5043PAPS   C4B56848  14.881  17.220   5.592
 5044PAPS   CNO56849  32.238   9.609   3.157
 5044PAPS   PO456850  31.852   9.533   3.159
 5044PAPS   GL156851  31.797   9.923   3.518
 5044PAPS   GL256852  31.610   9.800   3.576
 5044PAPS   C1A56853  31.775  10.004   3.915
 5044PAPS   D2A56854  31.757   9.919   4.300
 5044PAPS   D3A56855  31.521  10.335   4.283
 5044PAPS   D4A56856  31.294  10.085   4.051
 5044PAPS   C5A56857  30.841   9.995   4.149
 5044PAPS   C1B56858  31.441   9.669   3.931
 5044PAPS   C2B56859  31.279   9.726   4.440
 5044PAPS   C3B56860  31.233   9.760   4.917
 5044PAPS   C4B56861  31.126   9.671   5.353
 5045PAPS   CNO56862  33.577  25.858   3.316
 5045PAPS   PO456863  33.742  26.034   3.629
 5045PAPS   GL156864  33.928  25.793   3.844
 5045PAPS   GL256865  33.772  25.608   3.993
 5045PAPS   C1A56866  34.071  25.970   4.122
 5045PAPS   D2A56867  34.269  25.963   4.435
 5045PAPS   D3A56868  34.359  26.040   4.830
 5045PAPS   D4A56869  34.364  25.905   5.289
 5045PAPS   C5A56870  34.552  26.199   5.607
 5045PAPS   C1B56871  33.972  25.638   4.375
 5045PAPS   C2B56872  34.006  25.695   4.919
 5045PAPS   C3B56873  33.855  25.616   5.374
 5045PAPS   C4B56874  33.873  25.384   5.848
 5046PAPS   CNO56875  11.562   8.226   3.045
 5046PAPS   PO456876  11.534   8.576   3.074
 5046PAPS   GL156877  11.786   8.617   3.457
 5046PAPS   GL256878  11.908   8.440   3.352
 5046PAPS   C1A56879  11.712   8.698   3.779
 5046PAPS   D2A56880  11.528   8.706   4.130
 5046PAPS   D3A56881  11.631   8.642   4.601
 5046PAPS   D4A56882  12.061   8.731   4.843
 5046PAPS   C5A56883  12.453   8.691   5.098
 5046PAPS   C1B56884  12.002   8.243   3.773
 5046PAPS   C2B56885  11.892   8.297   4.257
 5046PAPS   C3B56886  11.971   8.224   4.755
 5046PAPS   C4B56887  11.808   8.500   5.178
 5047PAPS   CNO56888  35.781  34.171   3.545
 5047PAPS   PO456889  35.406  34.183   3.525
 5047PAPS   GL156890  35.053  34.075   3.596
 5047PAPS   GL256891  34.963  34.373   3.649
 5047PAPS   C1A56892  34.944  33.935   3.847
 5047PAPS   D2A56893  35.074  33.772   4.212
 5047PAPS   D3A56894  35.308  33.387   4.049
 5047PAPS   D4A56895  35.676  33.247   4.165
 5047PAPS   C5A56896  35.613  32.818   4.448
 5047PAPS   C1B56897  35.221  34.745   3.845
 5047PAPS   C2B56898  35.395  35.160   4.099
 5047PAPS   C3B56899  35.367  35.539   4.386
 5047PAPS   C4B56900  35.431  35.738   4.825
 5048PAPS   CNO56901  31.845  23.614   3.222
 5048PAPS   PO456902  31.539  23.739   2.990
 5048PAPS   GL156903  31.480  23.859   3.357
 5048PAPS   GL256904  31.743  23.916   3.539
 5048PAPS   C1A56905  31.188  23.740   3.558
 5048PAPS   D2A56906  31.266  23.924   3.883
 5048PAPS   D3A56907  31.663  23.864   4.189
 5048PAPS   D4A56908  31.512  24.017   4.591
 5048PAPS   C5A56909  31.371  24.357   4.887
 5048PAPS   C1B56910  31.882  23.536   3.777
 5048PAPS   C2B56911  31.816  23.395   4.213
 5048PAPS   C3B56912  31.675  23.516   4.638
 5048PAPS   C4B56913  31.456  23.554   5.025
 5049PAPS   CNO56914  19.713   5.217   3.509
 5049PAPS   PO456915  20.037   5.026   3.397
 5049PAPS   GL156916  20.100   5.026   3.770
 5049PAPS   GL256917  20.256   5.217   3.866
 5049PAPS   C1A56918  19.896   4.841   4.039
 5049PAPS   D2A56919  20.148   4.588   4.244
 5049PAPS   D3A56920  20.091   5.015   4.423
 5049PAPS   D4A56921  20.356   5.389   4.317
 5049PAPS   C5A56922  20.013   5.692   4.214
 5049PAPS   C1B56923  20.453   4.926   4.104
 5049PAPS   C2B56924  20.482   4.692   4.555
 5049PAPS   C3B56925  20.267   4.377   4.836
 5049PAPS   C4B56926  20.088   4.183   5.244
 5050PAPS   CNO56927   1.736  32.002   3.201
 5050PAPS   PO456928   1.549  31.881   3.485
 5050PAPS   GL156929   1.786  31.792   3.843
 5050PAPS   GL256930   1.672  31.546   3.852
 5050PAPS   C1A56931   1.611  31.899   4.133
 5050PAPS   D2A56932   1.489  32.214   4.395
 5050PAPS   D3A56933   1.738  32.552   4.474
 5050PAPS   D4A56934   2.149  32.570   4.725
 5050PAPS   C5A56935   2.464  32.350   4.967
 5050PAPS   C1B56936   1.606  31.327   4.215
 5050PAPS   C2B56937   1.893  31.213   4.646
 5050PAPS   C3B56938   1.951  31.073   5.174
 5050PAPS   C4B56939   1.795  31.263   5.535
 5051PAPS   CNO56940  32.640  28.674   3.380
 5051PAPS   PO456941  32.917  28.577   3.577
 5051PAPS   GL156942  32.781  28.410   4.014
 5051PAPS   GL256943  33.066  28.261   3.963
 5051PAPS   C1A56944  32.822  28.396   4.357
 5051PAPS   D2A56945  32.909  28.591   4.711
 5051PAPS   D3A56946  32.656  28.857   4.574
 5051PAPS   D4A56947  32.165  28.830   4.701
 5051PAPS   C5A56948  31.757  28.667   4.553
 5051PAPS   C1B56949  33.291  28.044   4.268
 5051PAPS   C2B56950  33.550  27.917   4.702
 5051PAPS   C3B56951  33.513  27.720   5.105
 5051PAPS   C4B56952  33.622  27.389   5.522
 5052PAPS   CNO56953  25.159  17.695   3.092
 5052PAPS   PO456954  25.473  17.704   3.327
 5052PAPS   GL156955  25.332  17.694   3.733
 5052PAPS   GL256956  25.609  17.753   3.879
 5052PAPS   C1A56957  25.107  17.777   3.998
 5052PAPS   D2A56958  24.823  17.711   4.268
 5052PAPS   D3A56959  24.591  17.743   4.692
 5052PAPS   D4A56960  24.590  17.641   5.115
 5052PAPS   C5A56961  24.523  18.069   5.396
 5052PAPS   C1B56962  25.427  18.076   4.186
 5052PAPS   C2B56963  25.423  18.357   4.665
 5052PAPS   C3B56964  25.430  18.502   5.073
 5052PAPS   C4B56965  25.458  18.565   5.503
 5053PAPS   CNO56966   2.229  33.405   3.274
 5053PAPS   PO456967   2.324  33.310   3.607
 5053PAPS   GL156968   2.172  33.022   3.974
 5053PAPS   GL256969   2.367  33.254   4.146
 5053PAPS   C1A56970   1.931  32.889   4.250
 5053PAPS   D2A56971   1.546  32.936   4.214
 5053PAPS   D3A56972   1.869  33.317   4.214
 5053PAPS   D4A56973   1.723  33.754   4.120
 5053PAPS   C5A56974   1.372  34.058   4.245
 5053PAPS   C1B56975   2.244  33.097   4.588
 5053PAPS   C2B56976   2.055  32.945   5.038
 5053PAPS   C3B56977   1.942  33.007   5.535
 5053PAPS   C4B56978   1.768  32.947   6.029
 5054PAPS   CNO56979  12.451  21.078   3.037
 5054PAPS   PO456980  12.767  20.957   3.199
 5054PAPS   GL156981  12.722  20.795   3.580
 5054PAPS   GL256982  12.472  20.638   3.569
 5054PAPS   C1A56983  12.590  21.041   3.818
 5054PAPS   D2A56984  12.544  21.404   3.938
 5054PAPS   D3A56985  12.661  21.688   4.277
 5054PAPS   D4A56986  13.059  21.794   4.522
 5054PAPS   C5A56987  13.124  22.201   4.852
 5054PAPS   C1B56988  12.255  20.676   3.918
 5054PAPS   C2B56989  11.881  20.747   4.225
 5054PAPS   C3B56990  11.668  20.827   4.634
 5054PAPS   C4B56991  11.510  21.093   5.080
 5055PAPS   CNO56992  26.818   9.171   3.247
 5055PAPS   PO456993  27.197   9.105   3.183
 5055PAPS   GL156994  27.428   9.030   3.464
 5055PAPS   GL256995  27.237   9.056   3.696
 5055PAPS   C1A56996  27.563   8.764   3.629
 5055PAPS   D2A56997  27.480   8.862   4.016
 5055PAPS   D3A56998  27.394   8.882   4.410
 5055PAPS   D4A56999  27.458   8.868   4.911
 5055PAPS   C5A57000  27.762   8.685   5.223
 5055PAPS   C1B57001  27.073   9.132   4.128
 5055PAPS   C2B57002  26.795   8.987   4.616
 5055PAPS   C3B57003  26.855   8.930   5.066
 5055PAPS   C4B57004  26.774   8.805   5.529
 5056PAPS   CNO57005   2.839  31.743   3.071
 5056PAPS   PO457006   2.934  31.402   3.223
 5056PAPS   GL157007   3.085  31.507   3.611
 5056PAPS   GL257008   3.078  31.301   3.718
 5056PAPS   C1A57009   3.272  31.717   3.894
 5056PAPS   D2A57010   3.526  32.014   3.929
 5056PAPS   D3A57011   3.606  32.315   4.260
 5056PAPS   D4A57012   3.765  32.362   4.681
 5056PAPS   C5A57013   4.136  32.175   4.944
 5056PAPS   C1B57014   3.292  31.388   4.138
 5056PAPS   C2B57015   3.394  31.567   4.672
 5056PAPS   C3B57016   3.597  31.575   5.108
 5056PAPS   C4B57017   3.561  31.711   5.616
 5057SAP6    C157018   8.261  23.914   2.899
 5057SAP6    C257019   8.135  23.926   2.652
 5057SAP6    C357020   8.134  24.170   2.882
 5057SAP6    C457021   8.177  24.003   2.811
 5057SAP6   PO457022   8.599  23.775   2.781
 5057SAP6    P457023   8.036  24.424   2.737
 5057SAP6    P557024   7.947  24.028   2.454
 5057SAP6   GL157025   8.574  23.606   3.079
 5057SAP6   GL257026   8.664  23.865   3.270
 5057SAP6   C1A57027   8.498  23.286   3.275
 5057SAP6   D2A57028   8.541  22.887   3.366
 5057SAP6   D3A57029   8.820  23.067   3.727
 5057SAP6   D4A57030   8.979  23.313   4.091
 5057SAP6   C5A57031   8.864  23.378   4.519
 5057SAP6   C1B57032   8.303  23.779   3.464
 5057SAP6   C2B57033   7.989  23.739   3.828
 5057SAP6   C3B57034   7.712  24.013   4.161
 5057SAP6   C4B57035   7.418  24.215   4.489
 5058SAP6    C157036  11.476   2.080   2.652
 5058SAP6    C257037  11.555   2.024   2.392
 5058SAP6    C357038  11.248   1.970   2.518
 5058SAP6    C457039  11.426   2.024   2.520
 5058SAP6   PO457040  11.605   2.417   2.727
 5058SAP6    P457041  11.116   1.796   2.272
 5058SAP6    P557042  11.556   1.737   2.300
 5058SAP6   GL157043  11.667   2.379   3.067
 5058SAP6   GL257044  11.899   2.509   3.128
 5058SAP6   C1A57045  11.519   2.263   3.380
 5058SAP6   D2A57046  11.311   2.023   3.640
 5058SAP6   D3A57047  11.038   1.728   3.705
 5058SAP6   D4A57048  10.660   1.575   3.540
 5058SAP6   C5A57049  10.266   1.796   3.384
 5058SAP6   C1B57050  11.975   2.394   3.536
 5058SAP6   C2B57051  12.113   2.388   4.024
 5058SAP6   C3B57052  12.021   2.212   4.426
 5058SAP6   C4B57053  11.630   2.363   4.701
 5059SAP6    C157054  15.012   0.749   2.645
 5059SAP6    C257055  14.820   0.858   2.478
 5059SAP6    C357056  15.085   0.678   2.377
 5059SAP6    C457057  14.972   0.761   2.500
 5059SAP6   PO457058  14.896   0.714   2.983
 5059SAP6    P457059  15.082   0.766   2.068
 5059SAP6    P557060  14.824   1.048   2.268
 5059SAP6   GL157061  14.909   0.937   3.264
 5059SAP6   GL257062  15.111   0.883   3.487
 5059SAP6   C1A57063  14.586   0.863   3.469
 5059SAP6   D2A57064  14.188   0.793   3.433
 5059SAP6   D3A57065  13.757   0.984   3.582
 5059SAP6   D4A57066  14.126   1.137   3.789
 5059SAP6   C5A57067  14.211   1.150   4.187
 5059SAP6   C1B57068  14.950   0.800   3.860
 5059SAP6   C2B57069  14.746   0.828   4.325
 5059SAP6   C3B57070  14.690   0.755   4.773
 5059SAP6   C4B57071  14.710   0.478   5.196
 5060SAP6    C157072   3.944  34.452   3.134
 5060SAP6    C257073   3.848  34.361   2.890
 5060SAP6    C357074   4.134  34.261   3.036
 5060SAP6    C457075   3.975  34.358   3.020
 5060SAP6   PO457076   3.684  34.519   3.290
 5060SAP6    P457077   4.217  34.019   2.798
 5060SAP6    P557078   3.968  34.363   2.627
 5060SAP6   GL157079   3.868  34.400   3.584
 5060SAP6   GL257080   3.996  34.651   3.660
 5060SAP6   C1A57081   4.016  34.185   3.841
 5060SAP6   D2A57082   4.012  33.895   4.121
 5060SAP6   D3A57083   3.928  33.808   4.511
 5060SAP6   D4A57084   4.018  33.345   4.524
 5060SAP6   C5A57085   3.923  33.311   4.961
 5060SAP6   C1B57086   3.880  34.648   4.145
 5060SAP6   C2B57087   3.723  34.669   4.635
 5060SAP6   C3B57088   3.544  34.552   5.045
 5060SAP6   C4B57089   3.398  34.693   5.462
 5061SAP6    C157090  19.479  29.403   3.242
 5061SAP6    C257091  19.519  29.188   3.072
 5061SAP6    C357092  19.739  29.436   3.126
 5061SAP6    C457093  19.579  29.342   3.146
 5061SAP6   PO457094  19.338  29.318   3.536
 5061SAP6    P457095  19.943  29.290   2.902
 5061SAP6    P557096  19.618  29.127   2.744
 5061SAP6   GL157097  19.205  29.528   3.837
 5061SAP6   GL257098  18.989  29.345   3.805
 5061SAP6   C1A57099  19.277  29.603   4.142
 5061SAP6   D2A57100  19.445  29.690   4.493
 5061SAP6   D3A57101  19.204  29.543   4.894
 5061SAP6   D4A57102  19.156  29.394   5.288
 5061SAP6   C5A57103  18.834  29.323   5.664
 5061SAP6   C1B57104  18.895  29.304   4.232
 5061SAP6   C2B57105  19.092  29.155   4.690
 5061SAP6   C3B57106  19.385  29.020   4.998
 5061SAP6   C4B57107  19.611  28.996   5.439
 5062SAP6    C157108  21.821  27.274   3.041
 5062SAP6    C257109  21.748  27.055   2.889
 5062SAP6    C357110  21.995  27.271   2.814
 5062SAP6    C457111  21.855  27.200   2.914
 5062SAP6   PO457112  21.727  27.264   3.343
 5062SAP6    P457113  22.063  27.127   2.517
 5062SAP6    P557114  21.591  26.984   2.635
 5062SAP6   GL157115  21.665  27.489   3.652
 5062SAP6   GL257116  21.438  27.434   3.789
 5062SAP6   C1A57117  21.945  27.657   3.821
 5062SAP6   D2A57118  22.298  27.520   3.968
 5062SAP6   D3A57119  22.767  27.470   4.078
 5062SAP6   D4A57120  23.193  27.767   4.126
 5062SAP6   C5A57121  23.024  28.011   4.479
 5062SAP6   C1B57122  21.313  27.270   4.189
 5062SAP6   C2B57123  21.272  27.128   4.668
 5062SAP6   C3B57124  21.351  26.867   5.056
 5062SAP6   C4B57125  21.452  26.580   5.473
 5063SAP6    C157126  20.812  11.966   3.196
 5063SAP6    C257127  20.624  12.085   3.032
 5063SAP6    C357128  20.831  11.837   2.941
 5063SAP6    C457129  20.756  11.963   3.056
 5063SAP6   PO457130  20.599  11.857   3.430
 5063SAP6    P457131  20.716  11.770   2.657
 5063SAP6    P557132  20.666  12.231   2.751
 5063SAP6   GL157133  20.737  11.894   3.743
 5063SAP6   GL257134  20.486  11.939   3.866
 5063SAP6   C1A57135  20.917  11.668   3.975
 5063SAP6   D2A57136  20.844  11.583   4.388
 5063SAP6   D3A57137  20.415  11.523   4.632
 5063SAP6   D4A57138  20.053  11.350   4.794
 5063SAP6   C5A57139  19.991  11.360   5.266
 5063SAP6   C1B57140  20.414  11.923   4.331
 5063SAP6   C2B57141  20.668  11.978   4.772
 5063SAP6   C3B57142  20.809  11.962   5.250
 5063SAP6   C4B57143  21.019  11.762   5.616
 5064SAP6    C157144   3.350  24.173   3.753
 5064SAP6    C257145   3.244  24.085   3.513
 5064SAP6    C357146   3.320  24.404   3.586
 5064SAP6    C457147   3.305  24.221   3.617
 5064SAP6   PO457148   3.512  23.949   3.878
 5064SAP6    P457149   3.253  24.492   3.284
 5064SAP6    P557150   3.029  24.039   3.244
 5064SAP6   GL157151   3.490  23.920   4.206
 5064SAP6   GL257152   3.563  23.745   4.417
 5064SAP6   C1A57153   3.547  24.200   4.456
 5064SAP6   D2A57154   3.383  24.440   4.644
 5064SAP6   D3A57155   2.976  24.325   4.845
 5064SAP6   D4A57156   2.752  24.704   5.025
 5064SAP6   C5A57157   2.514  24.930   4.732
 5064SAP6   C1B57158   3.990  23.820   4.542
 5064SAP6   C2B57159   4.186  24.103   4.959
 5064SAP6   C3B57160   4.355  24.415   5.297
 5064SAP6   C4B57161   4.381  24.731   5.675
 5065SAP6    C157162   2.397  20.201   3.061
 5065SAP6    C257163   2.444  19.965   2.924
 5065SAP6    C357164   2.285  20.234   2.799
 5065SAP6    C457165   2.375  20.133   2.928
 5065SAP6   PO457166   2.611  20.270   3.252
 5065SAP6    P457167   2.257  20.165   2.494
 5065SAP6    P557168   2.253  19.795   2.749
 5065SAP6   GL157169   2.514  20.180   3.539
 5065SAP6   GL257170   2.581  19.887   3.613
 5065SAP6   C1A57171   2.680  20.312   3.854
 5065SAP6   D2A57172   3.067  20.418   4.039
 5065SAP6   D3A57173   3.318  20.643   4.321
 5065SAP6   D4A57174   3.158  20.574   4.791
 5065SAP6   C5A57175   3.149  20.145   5.028
 5065SAP6   C1B57176   2.799  19.815   3.952
 5065SAP6   C2B57177   3.233  19.990   4.129
 5065SAP6   C3B57178   3.570  20.115   4.411
 5065SAP6   C4B57179   3.565  20.261   4.856
 5066SAP6    C157180   6.215   3.297   3.015
 5066SAP6    C257181   6.088   3.473   2.844
 5066SAP6    C357182   6.136   3.146   2.785
 5066SAP6    C457183   6.146   3.305   2.881
 5066SAP6   PO457184   6.069   3.397   3.306
 5066SAP6    P457185   5.999   3.191   2.493
 5066SAP6    P557186   6.114   3.672   2.564
 5066SAP6   GL157187   6.193   3.180   3.561
 5066SAP6   GL257188   5.955   2.992   3.518
 5066SAP6   C1A57189   6.015   3.256   3.913
 5066SAP6   D2A57190   5.873   3.189   4.289
 5066SAP6   D3A57191   5.912   2.752   4.376
 5066SAP6   D4A57192   5.861   2.744   4.855
 5066SAP6   C5A57193   6.095   2.561   5.229
 5066SAP6   C1B57194   5.743   2.920   3.889
 5066SAP6   C2B57195   5.415   2.951   4.286
 5066SAP6   C3B57196   5.390   2.992   4.714
 5066SAP6   C4B57197   5.531   3.056   5.216
 5067SAP6    C157198   8.054   6.638   3.461
 5067SAP6    C257199   7.908   6.745   3.252
 5067SAP6    C357200   8.068   6.450   3.245
 5067SAP6    C457201   8.010   6.611   3.320
 5067SAP6   PO457202   7.793   6.692   3.675
 5067SAP6    P457203   8.050   6.366   3.002
 5067SAP6    P557204   7.766   6.803   2.963
 5067SAP6   GL157205   8.029   6.850   3.835
 5067SAP6   GL257206   7.966   6.615   4.040
 5067SAP6   C1A57207   8.190   7.159   3.986
 5067SAP6   D2A57208   8.165   7.288   4.330
 5067SAP6   D3A57209   8.499   7.286   4.735
 5067SAP6   D4A57210   8.230   7.652   4.689
 5067SAP6   C5A57211   8.040   7.308   4.958
 5067SAP6   C1B57212   8.148   6.725   4.432
 5067SAP6   C2B57213   8.215   6.763   4.934
 5067SAP6   C3B57214   8.448   7.030   5.334
 5067SAP6   C4B57215   8.854   7.202   5.609
 5068SAP6    C157216  17.766  25.673   3.303
 5068SAP6    C257217  17.892  25.747   3.068
 5068SAP6    C357218  17.676  25.492   3.100
 5068SAP6    C457219  17.778  25.638   3.157
 5068SAP6   PO457220  17.716  25.938   3.459
 5068SAP6    P457221  17.792  25.372   2.836
 5068SAP6    P557222  18.092  25.555   2.896
 5068SAP6   GL157223  17.547  25.870   3.782
 5068SAP6   GL257224  17.729  25.873   4.009
 5068SAP6   C1A57225  17.260  25.944   3.927
 5068SAP6   D2A57226  16.885  25.869   4.079
 5068SAP6   D3A57227  16.451  26.018   4.009
 5068SAP6   D4A57228  16.348  26.488   4.184
 5068SAP6   C5A57229  16.502  26.543   4.630
 5068SAP6   C1B57230  17.532  25.625   4.335
 5068SAP6   C2B57231  17.263  25.396   4.712
 5068SAP6   C3B57232  17.209  25.099   5.045
 5068SAP6   C4B57233  17.397  24.985   5.500
 5069SAP6    C157234  31.700   1.326   2.714
 5069SAP6    C257235  31.859   1.306   2.488
 5069SAP6    C357236  31.636   1.550   2.548
 5069SAP6    C457237  31.732   1.394   2.584
 5069SAP6   PO457238  31.920   1.185   2.930
 5069SAP6    P457239  31.648   1.730   2.299
 5069SAP6    P557240  31.928   1.274   2.191
 5069SAP6   GL157241  31.665   1.162   3.189
 5069SAP6   GL257242  31.800   0.984   3.374
 5069SAP6   C1A57243  31.657   1.414   3.437
 5069SAP6   D2A57244  31.873   1.570   3.794
 5069SAP6   D3A57245  31.417   1.703   3.912
 5069SAP6   D4A57246  31.562   1.439   4.233
 5069SAP6   C5A57247  31.593   1.308   4.675
 5069SAP6   C1B57248  31.682   0.655   3.596
 5069SAP6   C2B57249  31.557   0.354   3.937
 5069SAP6   C3B57250  31.516   0.169   4.365
 5069SAP6   C4B57251  31.449   0.328   4.871
 5070SAP6    C157252  35.696   3.361   3.069
 5070SAP6    C257253  35.699   3.342   2.793
 5070SAP6    C357254  35.546   3.584   2.970
 5070SAP6    C457255  35.647   3.429   2.944
 5070SAP6   PO457256  36.015   3.204   3.161
 5070SAP6    P457257  35.461   3.809   2.779
 5070SAP6    P557258  35.634   3.354   2.501
 5070SAP6   GL157259  35.875   3.285   3.493
 5070SAP6   GL257260  36.123   3.370   3.629
 5070SAP6   C1A57261  35.779   3.035   3.713
 5070SAP6   D2A57262  35.998   2.999   4.064
 5070SAP6   D3A57263  36.359   3.150   4.321
 5070SAP6   D4A57264  36.667   2.995   4.680
 5070SAP6   C5A57265  36.866   3.303   4.992
 5070SAP6   C1B57266  35.972   3.505   4.032
 5070SAP6   C2B57267  36.094   3.507   4.530
 5070SAP6   C3B57268  36.287   3.411   4.936
 5070SAP6   C4B57269  36.559   3.348   5.350
 5071SAP6    C157270  30.906   9.274   3.007
 5071SAP6    C257271  30.972   9.290   2.738
 5071SAP6    C357272  30.852   9.543   2.924
 5071SAP6    C457273  30.910   9.369   2.890
 5071SAP6   PO457274  31.108   9.082   3.198
 5071SAP6    P457275  30.959   9.738   2.750
 5071SAP6    P557276  30.760   9.329   2.535
 5071SAP6   GL157277  31.059   8.915   3.476
 5071SAP6   GL257278  31.121   8.711   3.690
 5071SAP6   C1A57279  31.181   9.136   3.714
 5071SAP6   D2A57280  31.526   9.169   3.806
 5071SAP6   D3A57281  31.410   9.270   4.233
 5071SAP6   D4A57282  31.493   9.299   4.722
 5071SAP6   C5A57283  31.345   8.951   5.005
 5071SAP6   C1B57284  31.065   8.942   4.093
 5071SAP6   C2B57285  30.974   9.160   4.553
 5071SAP6   C3B57286  30.862   9.316   5.001
 5071SAP6   C4B57287  30.611   9.438   5.438
 5072SAP6    C157288  25.092  20.962   3.136
 5072SAP6    C257289  25.030  20.774   2.941
 5072SAP6    C357290  25.040  21.107   2.894
 5072SAP6    C457291  25.054  20.948   2.990
 5072SAP6   PO457292  25.263  20.792   3.369
 5072SAP6    P457293  24.976  21.169   2.635
 5072SAP6    P557294  24.793  20.692   2.810
 5072SAP6   GL157295  25.303  21.079   3.532
 5072SAP6   GL257296  25.298  21.250   3.668
 5072SAP6   C1A57297  25.315  20.895   3.878
 5072SAP6   D2A57298  25.292  20.895   4.307
 5072SAP6   D3A57299  25.480  20.681   4.731
 5072SAP6   D4A57300  25.592  20.658   5.183
 5072SAP6   C5A57301  25.703  20.239   5.463
 5072SAP6   C1B57302  25.561  21.336   3.983
 5072SAP6   C2B57303  25.681  21.255   4.405
 5072SAP6   C3B57304  25.901  21.022   4.837
 5072SAP6   C4B57305  26.162  21.094   5.231
 5073SAP6    C157306   7.743  30.063   2.976
 5073SAP6    C257307   7.793  30.148   2.718
 5073SAP6    C357308   7.508  30.201   2.887
 5073SAP6    C457309   7.681  30.137   2.860
 5073SAP6   PO457310   8.041  30.152   3.092
 5073SAP6    P457311   7.345  30.377   2.653
 5073SAP6    P557312   7.751  29.996   2.457
 5073SAP6   GL157313   8.081  30.244   3.422
 5073SAP6   GL257314   8.024  29.959   3.451
 5073SAP6   C1A57315   8.081  30.313   3.791
 5073SAP6   D2A57316   8.200  30.608   4.075
 5073SAP6   D3A57317   8.453  30.911   4.218
 5073SAP6   D4A57318   8.592  30.799   4.653
 5073SAP6   C5A57319   8.763  30.603   5.143
 5073SAP6   C1B57320   7.997  29.733   3.861
 5073SAP6   C2B57321   8.107  29.540   4.308
 5073SAP6   C3B57322   8.281  29.347   4.729
 5073SAP6   C4B57323   8.253  29.003   5.004
 5074SAP6    C157324  29.124  26.139   2.712
 5074SAP6    C257325  29.080  26.176   2.441
 5074SAP6    C357326  29.355  26.274   2.609
 5074SAP6    C457327  29.186  26.196   2.587
 5074SAP6   PO457328  29.019  25.879   2.803
 5074SAP6    P457329  29.533  26.335   2.342
 5074SAP6    P557330  29.087  26.472   2.297
 5074SAP6   GL157331  28.859  26.047   3.112
 5074SAP6   GL257332  29.102  26.039   3.222
 5074SAP6   C1A57333  28.611  26.196   3.375
 5074SAP6   D2A57334  28.269  26.377   3.558
 5074SAP6   D3A57335  27.911  26.250   3.442
 5074SAP6   D4A57336  27.709  26.615   3.632
 5074SAP6   C5A57337  27.659  27.126   3.730
 5074SAP6   C1B57338  28.891  25.889   3.606
 5074SAP6   C2B57339  28.823  25.966   4.051
 5074SAP6   C3B57340  28.899  26.022   4.491
 5074SAP6   C4B57341  28.742  26.197   4.926
 5075SAP6    C157342   0.358   2.880   3.117
 5075SAP6    C257343   0.553   2.799   2.937
 5075SAP6    C357344   0.231   2.858   2.861
 5075SAP6    C457345   0.381   2.846   2.972
 5075SAP6   PO457346   0.501   3.085   3.329
 5075SAP6    P457347   0.237   2.778   2.605
 5075SAP6    P557348   0.577   2.514   2.774
 5075SAP6   GL157349   0.537   2.972   3.570
 5075SAP6   GL257350   0.615   2.662   3.541
 5075SAP6   C1A57351   0.512   3.180   3.904
 5075SAP6   D2A57352   0.542   3.583   4.116
 5075SAP6   D3A57353   0.614   3.576   4.559
 5075SAP6   D4A57354   0.808   3.745   4.962
 5075SAP6   C5A57355   1.108   3.634   5.261
 5075SAP6   C1B57356   0.646   2.398   3.891
 5075SAP6   C2B57357   0.462   2.168   4.345
 5075SAP6   C3B57358   0.045   2.138   4.682
 5075SAP6   C4B57359  -0.390   1.911   4.499
 5076SAP6    C157360  24.336  27.465   2.813
 5076SAP6    C257361  24.408  27.364   2.565
 5076SAP6    C357362  24.295  27.676   2.623
 5076SAP6    C457363  24.346  27.502   2.667
 5076SAP6   PO457364  24.592  27.293   2.963
 5076SAP6    P457365  24.152  27.745   2.381
 5076SAP6    P557366  24.409  27.348   2.303
 5076SAP6   GL157367  24.595  27.303   3.275
 5076SAP6   GL257368  24.856  27.218   3.323
 5076SAP6   C1A57369  24.440  27.473   3.509
 5076SAP6   D2A57370  24.489  27.629   3.847
 5076SAP6   D3A57371  24.411  27.616   4.273
 5076SAP6   D4A57372  24.339  27.900   4.612
 5076SAP6   C5A57373  24.466  27.964   5.087
 5076SAP6   C1B57374  24.901  27.308   3.749
 5076SAP6   C2B57375  24.899  27.666   4.105
 5076SAP6   C3B57376  24.939  27.760   4.579
 5076SAP6   C4B57377  24.939  27.781   5.045
 5077SAP6    C157378  25.354   5.300   3.057
 5077SAP6    C257379  25.564   5.318   2.876
 5077SAP6    C357380  25.429   5.577   3.043
 5077SAP6    C457381  25.449   5.398   2.992
 5077SAP6   PO457382  25.466   4.970   3.160
 5077SAP6    P457383  25.504   5.809   2.855
 5077SAP6    P557384  25.627   5.276   2.577
 5077SAP6   GL157385  25.635   5.126   3.381
 5077SAP6   GL257386  25.704   5.438   3.339
 5077SAP6   C1A57387  25.633   5.192   3.775
 5077SAP6   D2A57388  25.681   4.813   3.996
 5077SAP6   D3A57389  25.522   4.809   4.421
 5077SAP6   D4A57390  25.574   4.749   4.783
 5077SAP6   C5A57391  25.323   5.041   5.090
 5077SAP6   C1B57392  25.903   5.573   3.691
 5077SAP6   C2B57393  26.004   5.511   4.188
 5077SAP6   C3B57394  26.180   5.414   4.662
 5077SAP6   C4B57395  26.201   4.937   4.801
 5078SAP6    C157396  24.380  30.852   2.991
 5078SAP6    C257397  24.508  31.068   2.875
 5078SAP6    C357398  24.175  31.022   2.884
 5078SAP6    C457399  24.354  30.981   2.917
 5078SAP6   PO457400  24.560  30.889   3.287
 5078SAP6    P457401  24.111  31.263   2.743
 5078SAP6    P557402  24.582  31.218   2.641
 5078SAP6   GL157403  24.357  30.689   3.490
 5078SAP6   GL257404  24.280  30.941   3.618
 5078SAP6   C1A57405  24.193  30.373   3.627
 5078SAP6   D2A57406  24.139  30.107   3.904
 5078SAP6   D3A57407  24.125  29.864   4.305
 5078SAP6   D4A57408  24.389  29.493   4.436
 5078SAP6   C5A57409  24.721  29.751   4.607
 5078SAP6   C1B57410  24.056  30.778   3.948
 5078SAP6   C2B57411  23.865  30.941   4.412
 5078SAP6   C3B57412  23.547  30.828   4.767
 5078SAP6   C4B57413  23.545  30.764   5.229
 5079SAP6    C157414   7.302  21.859   2.966
 5079SAP6    C257415   7.444  21.638   2.877
 5079SAP6    C357416   7.293  21.865   2.680
 5079SAP6    C457417   7.346  21.787   2.841
 5079SAP6   PO457418   7.499  21.926   3.227
 5079SAP6    P457419   7.300  21.785   2.392
 5079SAP6    P557420   7.568  21.470   2.603
 5079SAP6   GL157421   7.426  21.835   3.543
 5079SAP6   GL257422   7.595  21.852   3.720
 5079SAP6   C1A57423   7.100  21.862   3.722
 5079SAP6   D2A57424   6.972  22.079   3.959
 5079SAP6   D3A57425   6.911  21.721   4.213
 5079SAP6   D4A57426   7.153  21.480   4.466
 5079SAP6   C5A57427   7.659  21.572   4.555
 5079SAP6   C1B57428   7.645  21.480   3.794
 5079SAP6   C2B57429   7.379  21.093   3.672
 5079SAP6   C3B57430   7.221  20.675   3.837
 5079SAP6   C4B57431   7.097  20.291   4.088
 5080SAP6    C157432   6.170  18.062   2.813
 5080SAP6    C257433   6.301  18.050   2.568
 5080SAP6    C357434   5.968  18.074   2.610
 5080SAP6    C457435   6.146  18.062   2.664
 5080SAP6   PO457436   6.353  18.243   3.011
 5080SAP6    P457437   5.833  18.022   2.316
 5080SAP6    P557438   6.277  18.007   2.264
 5080SAP6   GL157439   6.288  18.323   3.315
 5080SAP6   GL257440   6.143  18.175   3.481
 5080SAP6   C1A57441   6.205  18.627   3.512
 5080SAP6   D2A57442   6.076  18.983   3.678
 5080SAP6   D3A57443   5.817  18.906   3.991
 5080SAP6   D4A57444   5.697  18.844   4.452
 5080SAP6   C5A57445   5.818  18.919   4.887
 5080SAP6   C1B57446   6.429  18.136   3.844
 5080SAP6   C2B57447   6.503  18.227   4.353
 5080SAP6   C3B57448   6.586  18.229   4.805
 5080SAP6   C4B57449   6.581  18.431   5.246
 5081SAP6    C157450  35.624   2.543   3.026
 5081SAP6    C257451  35.372   2.428   3.017
 5081SAP6    C357452  35.573   2.477   2.752
 5081SAP6    C457453  35.523   2.483   2.932
 5081SAP6   PO457454  35.815   2.351   3.245
 5081SAP6    P457455  35.437   2.400   2.538
 5081SAP6    P557456  35.108   2.623   2.921
 5081SAP6   GL157457  35.665   2.457   3.553
 5081SAP6   GL257458  35.590   2.164   3.606
 5081SAP6   C1A57459  35.709   2.625   3.901
 5081SAP6   D2A57460  35.554   2.784   4.239
 5081SAP6   D3A57461  35.796   3.048   4.519
 5081SAP6   D4A57462  36.177   2.967   4.766
 5081SAP6   C5A57463  36.436   2.924   5.164
 5081SAP6   C1B57464  35.529   2.271   4.117
 5081SAP6   C2B57465  35.409   2.357   4.568
 5081SAP6   C3B57466  35.205   2.399   4.967
 5081SAP6   C4B57467  34.897   2.484   5.387
 5082SAP6    C157468  33.693   3.158   3.068
 5082SAP6    C257469  33.871   3.054   2.883
 5082SAP6    C357470  33.690   3.334   2.842
 5082SAP6    C457471  33.751   3.182   2.931
 5082SAP6   PO457472  33.869   3.050   3.335
 5082SAP6    P457473  33.823   3.450   2.572
 5082SAP6    P557474  34.053   2.942   2.628
 5082SAP6   GL157475  33.960   3.164   3.614
 5082SAP6   GL257476  34.158   3.424   3.632
 5082SAP6   C1A57477  33.663   3.287   3.817
 5082SAP6   D2A57478  33.454   3.167   4.119
 5082SAP6   D3A57479  33.236   2.813   4.258
 5082SAP6   D4A57480  32.927   2.729   4.619
 5082SAP6   C5A57481  32.897   3.036   4.939
 5082SAP6   C1B57482  34.017   3.480   4.052
 5082SAP6   C2B57483  34.055   3.290   4.578
 5082SAP6   C3B57484  34.339   3.067   4.953
 5082SAP6   C4B57485  34.675   2.904   5.303
 5083SAP6    C157486   1.652  24.564   3.676
 5083SAP6    C257487   1.561  24.672   3.438
 5083SAP6    C357488   1.784  24.423   3.465
 5083SAP6    C457489   1.666  24.553   3.526
 5083SAP6   PO457490   1.371  24.622   3.900
 5083SAP6    P457491   1.896  24.416   3.188
 5083SAP6    P557492   1.728  24.815   3.254
 5083SAP6   GL157493   1.509  24.318   4.133
 5083SAP6   GL257494   1.193  24.389   4.175
 5083SAP6   C1A57495   1.694  24.020   4.349
 5083SAP6   D2A57496   1.901  23.762   4.593
 5083SAP6   D3A57497   2.063  24.070   4.953
 5083SAP6   D4A57498   2.116  24.452   5.056
 5083SAP6   C5A57499   2.289  24.854   5.216
 5083SAP6   C1B57500   1.215  24.334   4.626
 5083SAP6   C2B57501   1.067  24.226   5.040
 5083SAP6   C3B57502   0.900  24.171   5.502
 5083SAP6   C4B57503   1.114  23.955   5.882
 5084SAP6    C157504  28.343   0.633   3.098
 5084SAP6    C257505  28.477   0.763   2.893
 5084SAP6    C357506  28.155   0.668   2.885
 5084SAP6    C457507  28.325   0.688   2.959
 5084SAP6   PO457508  28.453   0.820   3.344
 5084SAP6    P457509  27.979   0.862   2.689
 5084SAP6    P557510  28.490   0.830   2.602
 5084SAP6   GL157511  28.260   0.791   3.640
 5084SAP6   GL257512  28.088   0.924   3.720
 5084SAP6   C1A57513  28.320   0.695   3.985
 5084SAP6   D2A57514  28.326   0.306   4.195
 5084SAP6   D3A57515  28.171   0.095   4.617
 5084SAP6   D4A57516  27.732  -0.018   4.639
 5084SAP6   C5A57517  27.406   0.286   4.702
 5084SAP6   C1B57518  27.935   0.916   4.131
 5084SAP6   C2B57519  27.857   0.989   4.565
 5084SAP6   C3B57520  27.646   0.806   4.933
 5084SAP6   C4B57521  27.300   0.633   5.252
 5085SAP6    C157522   6.670  23.328   3.138
 5085SAP6    C257523   6.484  23.519   3.063
 5085SAP6    C357524   6.473  23.193   2.980
 5085SAP6    C457525   6.542  23.347   3.060
 5085SAP6   PO457526   6.720  23.468   3.439
 5085SAP6    P457527   6.120  23.226   2.877
 5085SAP6    P557528   6.299  23.613   2.837
 5085SAP6   GL157529   6.609  23.492   3.749
 5085SAP6   GL257530   6.357  23.564   3.770
 5085SAP6   C1A57531   6.630  23.367   4.122
 5085SAP6   D2A57532   6.674  23.769   4.151
 5085SAP6   D3A57533   6.423  24.039   4.348
 5085SAP6   D4A57534   6.169  24.382   4.141
 5085SAP6   C5A57535   5.740  24.489   4.325
 5085SAP6   C1B57536   6.137  23.544   4.130
 5085SAP6   C2B57537   6.134  23.605   4.634
 5085SAP6   C3B57538   6.099  23.699   5.127
 5085SAP6   C4B57539   6.065  23.727   5.625
 5086SAP6    C157540  20.535   7.153   2.913
 5086SAP6    C257541  20.273   7.107   2.835
 5086SAP6    C357542  20.546   6.973   2.691
 5086SAP6    C457543  20.451   7.078   2.813
 5086SAP6   PO457544  20.592   7.233   3.212
 5086SAP6    P457545  20.480   6.839   2.506
 5086SAP6    P557546  20.088   6.951   2.623
 5086SAP6   GL157547  20.372   7.290   3.474
 5086SAP6   GL257548  20.395   6.958   3.492
 5086SAP6   C1A57549  20.279   7.211   3.813
 5086SAP6   D2A57550  20.262   7.142   4.252
 5086SAP6   D3A57551  19.996   7.262   4.627
 5086SAP6   D4A57552  19.671   7.517   4.809
 5086SAP6   C5A57553  19.791   7.928   5.007
 5086SAP6   C1B57554  20.641   6.818   3.808
 5086SAP6   C2B57555  20.696   6.688   4.336
 5086SAP6   C3B57556  20.557   6.669   4.748
 5086SAP6   C4B57557  20.273   7.004   4.893
 5087SAP6    C157558  33.316   8.446   3.102
 5087SAP6    C257559  33.354   8.396   2.832
 5087SAP6    C357560  33.145   8.627   2.959
 5087SAP6    C457561  33.272   8.490   2.965
 5087SAP6   PO457562  33.600   8.470   3.217
 5087SAP6    P457563  33.031   8.724   2.722
 5087SAP6    P557564  33.309   8.514   2.508
 5087SAP6   GL157565  33.413   8.501   3.551
 5087SAP6   GL257566  33.625   8.346   3.671
 5087SAP6   C1A57567  33.510   8.691   3.890
 5087SAP6   D2A57568  33.487   9.004   4.142
 5087SAP6   D3A57569  33.799   8.969   4.505
 5087SAP6   D4A57570  33.925   8.798   4.885
 5087SAP6   C5A57571  33.932   8.825   5.413
 5087SAP6   C1B57572  33.552   8.155   4.041
 5087SAP6   C2B57573  33.595   7.970   4.466
 5087SAP6   C3B57574  33.536   7.776   4.870
 5087SAP6   C4B57575  33.365   7.729   5.288
 5088SAP6    C157576  10.755  35.454   2.697
 5088SAP6    C257577  10.909  35.323   2.508
 5088SAP6    C357578  10.914  35.654   2.567
 5088SAP6    C457579  10.859  35.477   2.590
 5088SAP6   PO457580  10.761  35.229   2.910
 5088SAP6    P457581  11.121  35.750   2.354
 5088SAP6    P557582  10.888  35.319   2.219
 5088SAP6   GL157583  10.825  35.208   3.203
 5088SAP6   GL257584  10.899  34.986   3.264
 5088SAP6   C1A57585  10.860  35.267   3.553
 5088SAP6   D2A57586  10.909  35.034   3.830
 5088SAP6   D3A57587  10.656  35.217   4.186
 5088SAP6   D4A57588  10.192  35.188   4.191
 5088SAP6   C5A57589  10.014  35.347   4.587
 5088SAP6   C1B57590  10.671  34.762   3.490
 5088SAP6   C2B57591  10.570  34.263   3.712
 5088SAP6   C3B57592  10.354  33.852   3.900
 5088SAP6   C4B57593  10.435  33.639   4.336
 5089SAP6    C157594   6.926   7.428   3.091
 5089SAP6    C257595   6.834   7.213   2.943
 5089SAP6    C357596   6.945   7.503   2.815
 5089SAP6    C457597   6.902   7.381   2.949
 5089SAP6   PO457598   7.127   7.294   3.305
 5089SAP6    P457599   7.033   7.383   2.486
 5089SAP6    P557600   6.588   7.290   2.640
 5089SAP6   GL157601   7.099   7.355   3.701
 5089SAP6   GL257602   7.246   7.614   3.723
 5089SAP6   C1A57603   7.120   7.295   4.065
 5089SAP6   D2A57604   7.264   7.309   4.403
 5089SAP6   D3A57605   7.275   7.486   4.813
 5089SAP6   D4A57606   7.108   7.720   5.240
 5089SAP6   C5A57607   7.416   7.988   5.555
 5089SAP6   C1B57608   7.186   7.804   4.118
 5089SAP6   C2B57609   7.053   7.858   4.603
 5089SAP6   C3B57610   6.738   7.986   4.928
 5089SAP6   C4B57611   6.510   8.006   5.365
 5090SAP6    C157612  16.690  23.535   2.965
 5090SAP6    C257613  16.654  23.740   2.782
 5090SAP6    C357614  16.423  23.509   2.863
 5090SAP6    C457615  16.589  23.595   2.870
 5090SAP6   PO457616  16.885  23.624   3.252
 5090SAP6    P457617  16.188  23.636   2.726
 5090SAP6    P557618  16.720  23.778   2.510
 5090SAP6   GL157619  16.810  23.693   3.538
 5090SAP6   GL257620  16.603  23.916   3.550
 5090SAP6   C1A57621  16.803  23.560   3.875
 5090SAP6   D2A57622  16.555  23.507   4.110
 5090SAP6   D3A57623  16.389  23.620   4.488
 5090SAP6   D4A57624  16.022  23.797   4.646
 5090SAP6   C5A57625  15.799  24.202   4.552
 5090SAP6   C1B57626  16.394  23.964   3.940
 5090SAP6   C2B57627  16.360  24.145   4.389
 5090SAP6   C3B57628  16.275  24.155   4.868
 5090SAP6   C4B57629  16.250  23.887   5.264
 5091SAP6    C157630  25.014   5.041   3.010
 5091SAP6    C257631  24.879   5.177   2.810
 5091SAP6    C357632  24.885   4.843   2.849
 5091SAP6    C457633  24.926   5.020   2.890
 5091SAP6   PO457634  24.961   5.191   3.269
 5091SAP6    P457635  24.740   4.707   2.612
 5091SAP6    P557636  24.669   5.183   2.602
 5091SAP6   GL157637  24.826   5.013   3.570
 5091SAP6   GL257638  24.781   4.788   3.358
 5091SAP6   C1A57639  24.824   4.881   3.923
 5091SAP6   D2A57640  24.674   4.915   4.330
 5091SAP6   D3A57641  24.957   4.702   4.716
 5091SAP6   D4A57642  24.881   4.822   5.080
 5091SAP6   C5A57643  24.840   5.296   5.183
 5091SAP6   C1B57644  24.427   4.690   3.708
 5091SAP6   C2B57645  24.219   4.656   4.161
 5091SAP6   C3B57646  23.958   4.602   4.582
 5091SAP6   C4B57647  23.847   4.551   5.053
 5092SAP6    C157648  24.900   9.260   3.125
 5092SAP6    C257649  24.683   9.386   3.008
 5092SAP6    C357650  24.951   9.267   2.843
 5092SAP6    C457651  24.845   9.304   2.992
 5092SAP6   PO457652  24.739   9.066   3.337
 5092SAP6    P457653  24.775   9.304   2.592
 5092SAP6    P557654  24.633   9.663   2.923
 5092SAP6   GL157655  24.698   9.127   3.674
 5092SAP6   GL257656  24.964   8.961   3.743
 5092SAP6   C1A57657  24.570   9.418   3.822
 5092SAP6   D2A57658  24.476   9.817   3.809
 5092SAP6   D3A57659  24.264   9.905   4.240
 5092SAP6   D4A57660  24.055   9.893   4.679
 5092SAP6   C5A57661  24.013   9.705   5.094
 5092SAP6   C1B57662  24.904   8.688   4.051
 5092SAP6   C2B57663  24.995   8.615   4.547
 5092SAP6   C3B57664  25.306   8.563   4.917
 5092SAP6   C4B57665  25.429   8.581   5.357
 5093SAP6    C157666  34.720   6.927   3.231
 5093SAP6    C257667  34.570   6.837   3.016
 5093SAP6    C357668  34.905   6.868   3.020
 5093SAP6    C457669  34.732   6.877   3.089
 5093SAP6   PO457670  34.473   6.749   3.467
 5093SAP6    P457671  34.945   6.773   2.763
 5093SAP6    P557672  34.521   6.631   2.802
 5093SAP6   GL157673  34.215   6.754   3.726
 5093SAP6   GL257674  34.198   7.043   3.704
 5093SAP6   C1A57675  34.243   6.593   4.050
 5093SAP6   D2A57676  34.240   6.650   4.487
 5093SAP6   D3A57677  34.273   6.479   4.864
 5093SAP6   D4A57678  34.173   6.435   5.311
 5093SAP6   C5A57679  33.687   6.457   5.421
 5093SAP6   C1B57680  34.017   7.007   4.123
 5093SAP6   C2B57681  33.763   7.120   4.555
 5093SAP6   C3B57682  33.474   7.139   4.842
 5093SAP6   C4B57683  33.453   6.945   5.326
 5094SAP6    C157684  25.555  24.664   2.849
 5094SAP6    C257685  25.537  24.876   2.672
 5094SAP6    C357686  25.475  24.554   2.596
 5094SAP6    C457687  25.522  24.698   2.705
 5094SAP6   PO457688  25.455  24.739   3.126
 5094SAP6    P457689  25.489  24.672   2.247
 5094SAP6    P557690  25.632  25.043   2.530
 5094SAP6   GL157691  25.536  24.650   3.399
 5094SAP6   GL257692  25.730  24.377   3.401
 5094SAP6   C1A57693  25.679  24.765   3.711
 5094SAP6   D2A57694  25.905  24.821   4.033
 5094SAP6   D3A57695  26.158  25.045   4.226
 5094SAP6   D4A57696  26.325  25.234   4.616
 5094SAP6   C5A57697  26.689  24.980   4.739
 5094SAP6   C1B57698  25.747  24.349   3.867
 5094SAP6   C2B57699  25.883  24.446   4.366
 5094SAP6   C3B57700  25.836  24.689   4.745
 5094SAP6   C4B57701  25.851  24.730   5.249
 5095SAP6    C157702   0.858  23.291   3.095
 5095SAP6    C257703   0.857  23.104   2.890
 5095SAP6    C357704   0.742  23.419   2.867
 5095SAP6    C457705   0.819  23.271   2.951
 5095SAP6   PO457706   1.112  23.283   3.254
 5095SAP6    P457707   0.669  23.453   2.566
 5095SAP6    P557708   0.705  22.956   2.769
 5095SAP6   GL157709   1.095  23.284   3.557
 5095SAP6   GL257710   1.454  23.331   3.693
 5095SAP6   C1A57711   0.972  23.170   3.879
 5095SAP6   D2A57712   0.923  23.375   4.216
 5095SAP6   D3A57713   1.191  23.359   4.607
 5095SAP6   D4A57714   1.179  23.344   5.068
 5095SAP6   C5A57715   1.238  22.940   5.209
 5095SAP6   C1B57716   1.471  23.345   4.123
 5095SAP6   C2B57717   1.410  23.748   4.550
 5095SAP6   C3B57718   1.547  23.996   4.964
 5095SAP6   C4B57719   1.396  24.016   5.425
 5096SAP6    C157720  26.512  18.530   2.981
 5096SAP6    C257721  26.407  18.772   2.896
 5096SAP6    C357722  26.490  18.515   2.695
 5096SAP6    C457723  26.470  18.606   2.857
 5096SAP6   PO457724  26.266  18.418   3.184
 5096SAP6    P457725  26.492  18.680   2.389
 5096SAP6    P557726  26.258  19.012   2.714
 5096SAP6   GL157727  26.378  18.457   3.510
 5096SAP6   GL257728  26.142  18.420   3.539
 5096SAP6   C1A57729  26.420  18.704   3.759
 5096SAP6   D2A57730  26.481  19.046   3.980
 5096SAP6   D3A57731  26.751  19.232   4.274
 5096SAP6   D4A57732  26.990  19.205   4.712
 5096SAP6   C5A57733  27.224  19.582   4.862
 5096SAP6   C1B57734  26.283  18.152   3.885
 5096SAP6   C2B57735  26.381  17.975   4.336
 5096SAP6   C3B57736  26.317  17.766   4.738
 5096SAP6   C4B57737  25.894  17.622   5.059
 5097SAP6    C157738  24.401  23.740   2.876
 5097SAP6    C257739  24.492  23.953   2.725
 5097SAP6    C357740  24.197  23.797   2.682
 5097SAP6    C457741  24.363  23.830   2.761
 5097SAP6   PO457742  24.502  23.764   3.160
 5097SAP6    P457743  24.057  23.956   2.553
 5097SAP6    P557744  24.558  23.777   2.404
 5097SAP6   GL157745  24.274  23.813   3.362
 5097SAP6   GL257746  24.508  23.740   3.575
 5097SAP6   C1A57747  24.101  23.570   3.627
 5097SAP6   D2A57748  23.858  23.415   3.832
 5097SAP6   D3A57749  23.560  23.743   3.923
 5097SAP6   D4A57750  23.235  23.888   3.658
 5097SAP6   C5A57751  22.797  23.959   3.817
 5097SAP6   C1B57752  24.520  23.859   4.002
 5097SAP6   C2B57753  24.355  23.876   4.483
 5097SAP6   C3B57754  24.430  23.889   4.947
 5097SAP6   C4B57755  24.594  23.549   5.267
 5098SAP6    C157756  21.372  12.579   3.435
 5098SAP6    C257757  21.512  12.439   3.241
 5098SAP6    C357758  21.325  12.714   3.187
 5098SAP6    C457759  21.403  12.577   3.288
 5098SAP6   PO457760  21.531  12.681   3.725
 5098SAP6    P457761  21.412  12.738   2.912
 5098SAP6    P557762  21.502  12.285   2.984
 5098SAP6   GL157763  21.712  12.537   3.956
 5098SAP6   GL257764  21.993  12.450   3.911
 5098SAP6   C1A57765  21.796  12.703   4.291
 5098SAP6   D2A57766  21.633  12.709   4.600
 5098SAP6   D3A57767  21.262  12.635   4.371
 5098SAP6   D4A57768  20.978  12.418   4.592
 5098SAP6   C5A57769  20.891  12.473   5.107
 5098SAP6   C1B57770  22.135  12.253   4.253
 5098SAP6   C2B57771  22.345  12.211   4.727
 5098SAP6   C3B57772  22.342  12.437   5.168
 5098SAP6   C4B57773  22.405  12.898   5.138
 5099SAP6    C157774   8.392  11.709   2.835
 5099SAP6    C257775   8.550  11.654   2.614
 5099SAP6    C357776   8.366  11.932   2.657
 5099SAP6    C457777   8.436  11.765   2.702
 5099SAP6   PO457778   8.563  11.580   3.056
 5099SAP6    P457779   8.458  12.144   2.461
 5099SAP6    P557780   8.771  11.761   2.391
 5099SAP6   GL157781   8.584  11.630   3.360
 5099SAP6   GL257782   8.772  11.858   3.393
 5099SAP6   C1A57783   8.336  11.535   3.681
 5099SAP6   D2A57784   8.026  11.787   3.766
 5099SAP6   D3A57785   7.881  11.416   4.015
 5099SAP6   D4A57786   7.602  11.164   4.280
 5099SAP6   C5A57787   7.163  11.315   4.275
 5099SAP6   C1B57788   9.059  11.916   3.791
 5099SAP6   C2B57789   8.841  11.648   4.217
 5099SAP6   C3B57790   8.775  11.343   4.562
 5099SAP6   C4B57791   8.811  11.383   5.062
 5100SAP6    C157792  35.527   5.723   2.731
 5100SAP6    C257793  35.587   5.452   2.726
 5100SAP6    C357794  35.796   5.699   2.634
 5100SAP6    C457795  35.636   5.625   2.697
 5100SAP6   PO457796  35.345   5.730   2.985
 5100SAP6    P457797  36.029   5.535   2.532
 5100SAP6    P557798  35.657   5.266   2.566
 5100SAP6   GL157799  35.322   5.805   3.375
 5100SAP6   GL257800  35.455   6.084   3.387
 5100SAP6   C1A57801  35.405   5.665   3.723
 5100SAP6   D2A57802  35.556   5.443   4.001
 5100SAP6   D3A57803  35.709   5.538   4.402
 5100SAP6   D4A57804  36.095   5.429   4.569
 5100SAP6   C5A57805  36.290   5.658   4.948
 5100SAP6   C1B57806  35.553   6.127   3.822
 5100SAP6   C2B57807  35.407   6.201   4.336
 5100SAP6   C3B57808  35.364   6.145   4.780
 5100SAP6   C4B57809  35.194   6.463   5.116
 5101SAP6    C157810  23.411   4.823   3.261
 5101SAP6    C257811  23.541   4.676   3.065
 5101SAP6    C357812  23.296   4.899   3.010
 5101SAP6    C457813  23.416   4.799   3.112
 5101SAP6   PO457814  23.591   4.950   3.490
 5101SAP6    P457815  23.252   4.825   2.719
 5101SAP6    P557816  23.490   4.415   2.882
 5101SAP6   GL157817  23.630   5.100   3.794
 5101SAP6   GL257818  23.889   5.159   3.796
 5101SAP6   C1A57819  23.512   5.307   4.123
 5101SAP6   D2A57820  23.412   5.385   4.490
 5101SAP6   D3A57821  23.047   5.387   4.272
 5101SAP6   D4A57822  22.723   5.511   4.494
 5101SAP6   C5A57823  22.907   5.543   4.944
 5101SAP6   C1B57824  23.856   5.069   4.190
 5101SAP6   C2B57825  23.803   5.220   4.721
 5101SAP6   C3B57826  23.967   5.208   5.187
 5101SAP6   C4B57827  24.070   5.200   5.707
 5102SAP6    C157828   3.982  16.180   3.114
 5102SAP6    C257829   3.729  16.236   3.016
 5102SAP6    C357830   3.895  15.948   2.971
 5102SAP6    C457831   3.868  16.121   3.034
 5102SAP6   PO457832   3.907  16.262   3.441
 5102SAP6    P457833   3.753  15.797   2.751
 5102SAP6    P557834   3.674  16.349   2.810
 5102SAP6   GL157835   4.116  16.204   3.681
 5102SAP6   GL257836   4.292  16.374   3.664
 5102SAP6   C1A57837   4.229  16.066   4.023
 5102SAP6   D2A57838   4.328  16.052   4.437
 5102SAP6   D3A57839   4.704  16.041   4.623
 5102SAP6   D4A57840   4.523  15.604   4.613
 5102SAP6   C5A57841   4.619  15.212   4.375
 5102SAP6   C1B57842   4.385  16.454   4.045
 5102SAP6   C2B57843   4.629  16.540   4.504
 5102SAP6   C3B57844   4.728  16.804   4.963
 5102SAP6   C4B57845   5.027  16.751   5.324
 5103SAP6    C157846  29.859  25.435   2.527
 5103SAP6    C257847  29.912  25.608   2.317
 5103SAP6    C357848  29.640  25.413   2.344
 5103SAP6    C457849  29.804  25.486   2.396
 5103SAP6   PO457850  29.942  25.586   2.801
 5103SAP6    P457851  29.481  25.502   2.096
 5103SAP6    P557852  29.992  25.482   2.052
 5103SAP6   GL157853  29.899  25.387   3.102
 5103SAP6   GL257854  29.650  25.279   3.229
 5103SAP6   C1A57855  29.936  25.683   3.355
 5103SAP6   D2A57856  29.889  25.959   3.673
 5103SAP6   D3A57857  29.722  26.062   4.099
 5103SAP6   D4A57858  29.334  26.173   4.312
 5103SAP6   C5A57859  29.265  26.214   4.818
 5103SAP6   C1B57860  29.520  25.141   3.664
 5103SAP6   C2B57861  29.523  25.187   4.174
 5103SAP6   C3B57862  29.558  25.352   4.590
 5103SAP6   C4B57863  29.418  25.442   5.051
 5104SAP6    C157864   8.025   7.957   3.166
 5104SAP6    C257865   8.144   8.017   2.923
 5104SAP6    C357866   7.858   8.152   3.038
 5104SAP6    C457867   8.009   8.042   3.042
 5104SAP6   PO457868   8.342   7.987   3.347
 5104SAP6    P457869   7.717   8.229   2.773
 5104SAP6    P557870   8.133   7.997   2.661
 5104SAP6   GL157871   8.306   7.887   3.659
 5104SAP6   GL257872   8.072   7.719   3.727
 5104SAP6   C1A57873   8.517   7.906   3.959
 5104SAP6   D2A57874   8.595   7.697   4.331
 5104SAP6   D3A57875   9.013   7.501   4.461
 5104SAP6   D4A57876   9.133   7.270   4.832
 5104SAP6   C5A57877   8.804   7.202   5.128
 5104SAP6   C1B57878   8.097   7.875   4.170
 5104SAP6   C2B57879   8.063   8.122   4.631
 5104SAP6   C3B57880   7.939   8.485   4.918
 5104SAP6   C4B57881   7.787   8.714   5.307
 5105SAP6    C157882  19.781  21.613   3.417
 5105SAP6    C257883  19.712  21.800   3.225
 5105SAP6    C357884  19.947  21.563   3.189
 5105SAP6    C457885  19.813  21.659   3.277
 5105SAP6   PO457886  19.474  21.558   3.574
 5105SAP6    P457887  20.089  21.574   2.907
 5105SAP6    P557888  19.645  21.864   2.934
 5105SAP6   GL157889  19.410  21.529   3.950
 5105SAP6   GL257890  19.541  21.242   3.955
 5105SAP6   C1A57891  19.389  21.842   4.176
 5105SAP6   D2A57892  19.452  22.069   4.498
 5105SAP6   D3A57893  19.251  22.008   4.897
 5105SAP6   D4A57894  19.122  21.590   5.070
 5105SAP6   C5A57895  19.220  21.339   5.502
 5105SAP6   C1B57896  19.476  21.000   4.238
 5105SAP6   C2B57897  19.283  20.970   4.704
 5105SAP6   C3B57898  19.031  21.062   5.098
 5105SAP6   C4B57899  18.743  21.105   5.474
 5106SAP6    C157900  23.887  10.122   3.100
 5106SAP6    C257901  24.103  10.254   3.213
 5106SAP6    C357902  23.875  10.393   3.010
 5106SAP6    C457903  23.955  10.256   3.108
 5106SAP6   PO457904  23.738   9.935   3.363
 5106SAP6    P457905  23.982  10.682   3.106
 5106SAP6    P557906  24.326  10.368   3.090
 5106SAP6   GL157907  23.868   9.770   3.615
 5106SAP6   GL257908  24.050   9.591   3.613
 5106SAP6   C1A57909  23.796   9.852   4.033
 5106SAP6   D2A57910  23.771   9.616   4.371
 5106SAP6   D3A57911  23.749   9.232   4.607
 5106SAP6   D4A57912  23.788   9.141   4.999
 5106SAP6   C5A57913  23.710   9.423   5.382
 5106SAP6   C1B57914  24.149   9.445   4.008
 5106SAP6   C2B57915  24.216   9.428   4.474
 5106SAP6   C3B57916  24.280   9.264   4.952
 5106SAP6   C4B57917  24.139   9.139   5.375
 5107SAP6    C157918  30.065   9.449   3.136
 5107SAP6    C257919  29.798   9.387   3.094
 5107SAP6    C357920  30.005   9.518   2.865
 5107SAP6    C457921  29.956   9.451   3.032
 5107SAP6   PO457922  30.143   9.209   3.342
 5107SAP6    P457923  29.836   9.604   2.689
 5107SAP6    P557924  29.543   9.598   3.043
 5107SAP6   GL157925  30.105   9.127   3.691
 5107SAP6   GL257926  30.092   8.846   3.740
 5107SAP6   C1A57927  29.931   9.140   3.946
 5107SAP6   D2A57928  29.997   9.032   4.314
 5107SAP6   D3A57929  29.722   9.319   4.419
 5107SAP6   D4A57930  29.434   9.123   4.671
 5107SAP6   C5A57931  29.083   9.050   4.376
 5107SAP6   C1B57932  30.104   8.600   4.129
 5107SAP6   C2B57933  30.035   8.645   4.613
 5107SAP6   C3B57934  29.938   9.054   4.814
 5107SAP6   C4B57935  29.780   9.500   4.917
 5108SAP6    C157936  25.497  20.089   3.381
 5108SAP6    C257937  25.369  19.910   3.213
 5108SAP6    C357938  25.693  19.995   3.195
 5108SAP6    C457939  25.520  19.998   3.263
 5108SAP6   PO457940  25.296  20.050   3.625
 5108SAP6    P457941  25.815  19.882   2.945
 5108SAP6    P557942  25.348  19.904   2.908
 5108SAP6   GL157943  25.075  20.199   3.857
 5108SAP6   GL257944  24.828  19.996   3.978
 5108SAP6   C1A57945  25.026  20.451   4.120
 5108SAP6   D2A57946  25.057  20.535   4.507
 5108SAP6   D3A57947  25.133  20.338   4.966
 5108SAP6   D4A57948  25.126  20.685   5.276
 5108SAP6   C5A57949  25.066  20.759   5.736
 5108SAP6   C1B57950  24.957  20.048   4.382
 5108SAP6   C2B57951  24.913  19.880   4.842
 5108SAP6   C3B57952  25.150  19.614   5.216
 5108SAP6   C4B57953  25.370  19.891   5.548
 5109SAP6    C157954  17.042  25.124   3.089
 5109SAP6    C257955  16.822  25.269   3.004
 5109SAP6    C357956  16.933  24.985   2.864
 5109SAP6    C457957  16.932  25.126   2.986
 5109SAP6   PO457958  17.022  25.247   3.419
 5109SAP6    P457959  16.721  24.917   2.623
 5109SAP6    P557960  16.862  25.401   2.726
 5109SAP6   GL157961  16.812  25.140   3.698
 5109SAP6   GL257962  16.730  25.296   3.859
 5109SAP6   C1A57963  16.915  24.907   3.948
 5109SAP6   D2A57964  17.107  24.570   4.104
 5109SAP6   D3A57965  17.222  24.320   4.418
 5109SAP6   D4A57966  17.517  24.333   4.832
 5109SAP6   C5A57967  17.819  24.052   5.076
 5109SAP6   C1B57968  17.037  25.370   4.125
 5109SAP6   C2B57969  17.107  24.999   4.420
 5109SAP6   C3B57970  17.068  24.716   4.780
 5109SAP6   C4B57971  17.057  24.391   5.089
 5110SAP6    C157972   7.825  26.474   2.660
 5110SAP6    C257973   7.559  26.398   2.660
 5110SAP6    C357974   7.752  26.428   2.386
 5110SAP6    C457975   7.712  26.433   2.569
 5110SAP6   PO457976   7.982  26.304   2.922
 5110SAP6    P457977   7.689  26.379   2.100
 5110SAP6    P557978   7.329  26.382   2.498
 5110SAP6   GL157979   8.146  26.464   3.188
 5110SAP6   GL257980   8.345  26.280   3.256
 5110SAP6   C1A57981   8.092  26.667   3.486
 5110SAP6   D2A57982   7.948  26.605   3.865
 5110SAP6   D3A57983   7.922  26.249   4.164
 5110SAP6   D4A57984   8.169  26.022   4.350
 5110SAP6   C5A57985   8.379  26.179   4.747
 5110SAP6   C1B57986   8.445  26.438   3.615
 5110SAP6   C2B57987   8.429  26.792   3.980
 5110SAP6   C3B57988   8.235  27.067   4.320
 5110SAP6   C4B57989   8.026  27.365   4.620
 5111SAP6    C157990  23.789  21.074   3.265
 5111SAP6    C257991  23.534  21.112   3.163
 5111SAP6    C357992  23.703  20.822   3.161
 5111SAP6    C457993  23.676  21.003   3.197
 5111SAP6   PO457994  23.855  21.190   3.547
 5111SAP6    P457995  23.515  20.616   2.994
 5111SAP6    P557996  23.339  21.004   2.920
 5111SAP6   GL157997  23.864  21.012   3.884
 5111SAP6   GL257998  24.214  21.088   3.924
 5111SAP6   C1A57999  23.585  20.770   3.827
 5111SAP6   D2A58000  23.565  20.551   4.086
 5111SAP6   D3A58001  23.502  20.111   4.142
 5111SAP6   D4A58002  23.085  19.971   4.162
 5111SAP6   C5A58003  22.688  19.649   4.358
 5111SAP6   C1B58004  24.260  21.080   4.356
 5111SAP6   C2B58005  24.404  20.992   4.840
 5111SAP6   C3B58006  24.618  20.737   5.204
 5111SAP6   C4B58007  24.709  20.472   5.585
 5112ION     NA58008  32.552  22.756   9.465
 5113ION     NA58009  28.154  10.881   9.998
 5114ION     NA58010  32.337  11.352   0.004
 5115ION     NA58011  18.229  12.294   3.265
 5116ION     NA58012  15.621   2.196   3.201
 5117ION     NA58013   1.931   4.240   0.945
 5118ION     NA58014  35.226  15.101   8.417
 5119ION     NA58015  10.990  13.541   1.895
 5120ION     NA58016  22.414  35.345   0.889
 5121ION     NA58017   1.543   3.006   8.221
 5122ION     NA58018   0.954  15.004   8.975
 5123ION     NA58019  11.169   0.558   2.238
 5124ION     NA58020  31.637  34.337   9.652
 5125ION     NA58021  23.440  17.371   3.880
 5126ION     NA58022  13.695  25.233   1.659
 5127ION     NA58023  10.953  26.581   1.684
 5128ION     NA58024  12.258   5.147   1.109
 5129ION     NA58025   6.949  11.293   0.505
 5130ION     NA58026   5.675   4.967   0.972
 5131ION     NA58027  11.208  35.393   9.753
 5132ION     NA58028   7.813  18.479   9.434
 5133ION     NA58029  12.697  23.629   9.214
 5134ION     NA58030   0.813  22.969   9.840
 5135ION     NA58031  25.000   8.902   3.003
 5136ION     NA58032  25.260  34.400   8.360
 5137ION     NA58033  22.051  35.964   8.763
 5138ION     NA58034  12.794   3.055   0.178
 5139ION     NA58035  27.977  28.005   2.395
 5140ION     NA58036  31.367  27.026   9.613
 5141ION     NA58037   6.142  17.164  10.273
 5142ION     NA58038  27.210  24.853   9.231
 5143ION     NA58039  20.495   8.735   2.953
 5144ION     NA58040  20.202  19.062   2.290
 5145ION     NA58041  35.097   3.008   8.591
 5146ION     NA58042  26.735   3.649   0.221
 5147ION     NA58043  26.407  26.668   0.428
 5148ION     NA58044   6.881  27.259   1.914
 5149ION     NA58045  22.924   4.951   3.085
 5150ION     NA58046   8.078   5.021   7.552
 5151ION     NA58047  12.421   1.862   8.817
 5152ION     NA58048   6.329  32.086   0.019
 5153ION     NA58049  20.497  18.771   1.232
 5154ION     NA58050  24.414  25.027   2.071
 5155ION     NA58051  15.586  28.235   0.008
 5156ION     NA58052  27.802  28.278   9.168
 5157ION     NA58053  13.468  31.885   2.808
 5158ION     NA58054  29.682  21.236   2.842
 5159ION     NA58055  23.637  33.239   2.614
 5160ION     NA58056  30.922  34.735   8.223
 5161ION     NA58057  28.766  26.177  10.179
 5162ION     NA58058  23.490  33.932  10.200
 5163ION     NA58059   7.142  10.705   0.131
 5164ION     NA58060   2.376   4.111   0.483
 5165ION     NA58061  16.457  27.050   0.154
 5166ION     NA58062   4.528  14.083   0.886
 5167ION     NA58063  19.697  29.551   3.554
 5168ION     NA58064  18.078  19.921   2.497
 5169ION     NA58065  26.014  18.830   2.384
 5170ION     NA58066   6.896  28.781   8.683
 5171ION     NA58067  22.434  11.946  10.301
 5172ION     NA58068  34.458   2.519   2.966
 5173ION     NA58069  18.604  11.125   3.539
 5174ION     NA58070  15.273  17.490   2.766
 5175ION     NA58071  34.930  20.369   4.016
 5176ION     NA58072  18.555  15.563   9.339
 5177ION     NA58073  18.153  14.577   0.777
 5178ION     NA58074  30.061  10.760   2.239
 5179ION     NA58075   6.575  27.234   0.669
 5180ION     NA58076   6.354  31.332   8.521
 5181ION     NA58077  23.588   1.194   2.273
 5182ION     NA58078  33.209  13.084   1.878
 5183ION     NA58079  26.651  13.686  10.266
 5184ION     NA58080  10.794  33.321   3.333
 5185ION     NA58081  35.507   6.547   9.418
 5186ION     NA58082  12.234  14.606   1.941
 5187ION     NA58083  29.600   9.179   2.621
 5188ION     NA58084  13.773  33.308   0.985
 5189ION     NA58085  28.734  30.884   1.172
 5190ION     NA58086  10.106  16.991   8.089
 5191ION     NA58087  24.863  19.064   8.674
 5192ION     NA58088  24.342  18.010   9.950
 5193ION     NA58089   6.558  18.325   2.404
 5194ION     NA58090  34.252  11.257   1.167
 5195ION     NA58091  26.065   8.436   1.085
 5196ION     NA58092  30.181  34.263   1.030
 5197ION     NA58093  26.864   1.202   3.049
 5198ION     NA58094  14.726   0.518   2.268
 5199ION     NA58095  29.056  10.213   8.712
 5200ION     NA58096  24.616   5.264   3.062
 5201ION     NA58097  29.491  26.086   2.940
 5202ION     NA58098  11.774   6.903   0.007
 5203ION     NA58099  21.726   4.895   9.463
 5204ION     NA58100  23.526  32.429   3.442
 5205ION     NA58101  12.647  27.042   0.461
 5206ION     NA58102  21.087  24.383   3.097
 5207ION     NA58103  35.413  24.470   1.232
 5208ION     NA58104  25.813  22.639  10.188
 5209ION     NA58105   7.389  20.063  10.097
 5210ION     NA58106  24.078  28.874   8.655
 5211ION     NA58107  17.185  21.087   1.530
 5212ION     NA58108   1.181   4.325   0.580
 5213ION     NA58109  34.379  21.227   2.082
 5214ION     NA58110   5.220   7.066   0.533
 5215ION     NA58111   5.033  24.131   8.640
 5216ION     NA58112  20.742  18.428   0.482
 5217ION     NA58113   0.566  33.345   3.669
 5218ION     NA58114  29.773  24.195  10.274
 5219ION     NA58115  35.411  33.791   8.215
 5220ION     NA58116  22.443  11.712   7.879
 5221ION     NA58117  19.734   0.782   2.240
 5222ION     NA58118  23.203  18.983   2.555
 5223ION     NA58119  11.919  32.712   1.161
 5224ION     NA58120  31.499   7.315   2.131
 5225ION     NA58121  31.161  14.739   0.014
 5226ION     NA58122  33.131  24.470  10.159
 5227ION     NA58123  25.160  33.448   8.235
 5228ION     NA58124  26.615  31.435   9.897
 5229ION     NA58125   5.039  18.220   1.085
 5230ION     NA58126  17.288  25.471   3.132
 5231ION     NA58127   9.347  28.028   2.552
 5232ION     NA58128   6.367  35.003   8.122
 5233ION     NA58129  25.453   5.595   2.352
 5234ION     NA58130   2.975  24.674   3.607
 5235ION     NA58131  22.634   7.463   8.691
 5236ION     NA58132  34.519  26.956  10.211
 5237ION     NA58133  18.945  21.881   2.904
 5238ION     NA58134  30.464   7.692   7.469
 5239ION     NA58135  20.462  25.229  10.275
 5240ION     NA58136  17.527   4.064   2.241
 5241ION     NA58137   7.356  20.779   1.622
 5242ION     NA58138   3.979  13.066   2.308
 5243ION     NA58139   7.305  17.225   1.924
 5244ION     NA58140  31.436   3.020   8.865
 5245ION     NA58141   6.123   3.921   1.397
 5246ION     NA58142  35.853   2.632   2.434
 5247ION     NA58143   7.640  24.188   2.729
 5248ION     NA58144   4.242   8.094   0.665
 5249ION     NA58145  18.357  31.896   2.109
 5250ION     NA58146  26.054  32.563   2.527
 5251ION     NA58147  22.461  23.860   2.658
 5252ION     NA58148   1.738  24.985   3.620
 5253ION     NA58149   7.119   8.744   9.824
 5254ION     NA58150   6.028  30.645   2.291
 5255ION     NA58151  14.075   1.398   0.279
 5256ION     NA58152  19.273   1.849   0.107
 5257ION     NA58153  20.997  12.763   2.972
 5258ION     NA58154   7.252  14.031   9.428
 5259ION     NA58155  32.301   6.532   1.716
 5260ION     NA58156   0.986  23.228   0.556
 5261ION     NA58157  12.645   1.635   1.884
 5262ION     NA58158   9.588  29.171   1.529
 5263ION     NA58159   6.542  15.541   8.873
 5264ION     NA58160  23.405   0.493   9.114
 5265ION     NA58161   9.477  27.124   9.227
 5266ION     NA58162   1.817  25.375   2.558
 5267ION     NA58163  25.262  19.220   2.583
 5268ION     NA58164  33.980  29.410   1.224
 5269ION     NA58165  16.436  16.805   2.813
 5270ION     NA58166  32.784  20.889   1.591
 5271ION     NA58167  30.593  24.024   3.038
 5272ION     NA58168  27.255  18.050   2.778
 5273ION     NA58169  11.740   3.995   7.566
 5274ION     NA58170  15.627  23.685   0.596
 5275ION     NA58171  14.628  25.580   8.776
 5276ION     NA58172  27.739   0.110  10.024
 5277ION     NA58173   3.273  13.356   1.615
 5278ION     NA58174   3.675  15.398   0.478
 5279ION     NA58175   3.565  32.845   1.448
 5280ION     NA58176  33.544  19.948   2.621
 5281ION     NA58177  35.509  31.564   8.586
 5282ION     NA58178  24.032   4.324   0.255
 5283ION     NA58179   0.846  13.492  10.189
 5284ION     NA58180  27.661  22.284   0.192
 5285ION     NA58181  23.283  32.828   2.968
 5286ION     NA58182  25.982  24.899   2.298
 5287ION     NA58183  10.557  35.803   2.770
 5288ION     NA58184   5.287   3.396   0.896
 5289ION     NA58185  18.304  17.437   2.860
 5290ION     NA58186  20.274  19.100   9.230
 5291ION     NA58187  34.970  20.689   1.329
 5292ION     NA58188  22.160  12.882   8.941
 5293ION     NA58189  14.757  24.415   9.999
 5294ION     NA58190  11.418   2.857   2.680
 5295ION     NA58191  25.433  28.448   1.413
 5296ION     NA58192  28.961  31.633  10.281
 5297ION     NA58193  27.129  22.961   7.943
 5298ION     NA58194   3.806  22.567   2.607
 5299ION     NA58195  16.530  20.815   0.484
 5300ION     NA58196  33.010  13.915   2.375
 5301ION     NA58197  29.476  22.986   3.373
 5302ION     NA58198  31.767  28.133   1.817
 5303ION     NA58199   3.552   1.403   1.911
 5304ION     NA58200   2.359  23.994   9.092
 5305ION     NA58201  28.038  19.134   1.889
 5306ION     NA58202  32.739  26.568   2.533
 5307ION     NA58203  23.635  15.201   8.341
 5308ION     NA58204  28.137  29.579   9.164
 5309ION     NA58205   5.093  22.009   2.907
 5310ION     NA58206  25.272  31.815   9.098
 5311ION     NA58207  32.993   8.492   3.337
 5312ION     NA58208  14.836   1.067   1.835
 5313ION     NA58209   4.807   7.840   8.763
 5314ION     NA58210   1.437  19.384   1.195
 5315ION     NA58211  25.211  29.737   0.122
 5316ION     NA58212   7.733   7.841   2.547
 5317ION     NA58213   3.315  12.173   2.912
 5318ION     NA58214  29.150   9.405   3.188
 5319ION     NA58215   2.108  17.819   2.443
 5320ION     NA58216   6.157  26.769   2.049
 5321ION     NA58217   5.973  17.704   2.841
 5322ION     NA58218  26.485   7.547  10.173
 5323ION     NA58219  30.649  14.499   1.128
 5324ION     NA58220  22.833  10.329   2.246
 5325ION     NA58221  26.302  14.405   7.886
 5326ION     NA58222   5.005  30.907   1.473
 5327ION     NA58223   5.434   8.494   1.479
 5328ION     NA58224   7.043  21.534   2.679
 5329ION     NA58225   8.784  25.376   9.059
 5330ION     NA58226  11.265   4.627   2.069
 5331ION     NA58227  12.469  32.409   3.450
 5332ION     NA58228  12.778  11.631   7.294
 5333ION     NA58229  34.379  21.908   8.794
 5334ION     NA58230   5.826   6.979   8.625
 5335ION     NA58231   5.415   2.777   2.293
 5336ION     NA58232  23.468   7.645  10.067
 5337ION     NA58233   8.874  18.306   3.174
 5338ION     NA58234  16.796   9.545   9.631
 5339ION     NA58235   4.531  15.070   0.388
 5340ION     NA58236  32.483  25.615   0.110
 5341ION     NA58237  21.233  33.323   1.531
 5342ION     NA58238   1.942  20.018   2.974
 5343ION     NA58239  24.415   9.920   0.646
 5344ION     NA58240  28.208  18.284   9.164
 5345ION     NA58241   1.898  26.788   9.916
 5346ION     NA58242  14.210   6.031   8.242
 5347ION     NA58243  35.437  28.900   2.014
 5348ION     NA58244   3.563   2.122   9.935
 5349ION     NA58245  17.257  27.878   1.541
 5350ION     NA58246  20.955  33.365   0.846
 5351ION     NA58247  28.746  13.345   9.786
 5352ION     NA58248   8.022  32.492   1.808
 5353ION     NA58249  28.138  19.384   8.997
 5354ION     NA58250  10.184   5.147   1.117
 5355ION     NA58251   3.846  27.409   0.509
 5356ION     NA58252  18.710  34.777   9.923
 5357ION     NA58253   2.618  15.456   8.872
 5358ION     NA58254  32.059  12.189   8.505
 5359ION     NA58255  27.066  23.068   1.534
 5360ION     NA58256  13.591   2.522   2.133
 5361ION     NA58257  25.220   9.751   3.406
 5362ION     NA58258   0.477  30.621   1.349
 5363ION     NA58259   8.009  10.980   0.894
 5364ION     NA58260  23.392  13.355   8.832
 5365ION     NA58261  30.556  28.463   8.921
 5366ION     NA58262  26.694   8.610   0.359
 5367ION     NA58263  12.122  26.228   9.533
 5368ION     NA58264  19.399   8.551   9.133
 5369ION     NA58265  23.045  20.475   3.466
 5370ION     NA58266   2.603  20.201   9.700
 5371ION     NA58267  14.529   4.313   2.583
 5372ION     NA58268   2.784  35.689   2.538
 5373ION     NA58269   7.999  25.234   3.092
 5374ION     NA58270  29.676  25.908   2.169
 5375ION     NA58271  25.585  30.843   0.668
 5376ION     NA58272  28.365  11.308   2.414
 5377ION     NA58273  14.470  11.634   2.549
 5378ION     NA58274  11.346  15.014   9.320
 5379ION     NA58275  21.123  11.986   2.707
 5380ION     NA58276  30.634  24.987   2.163
 5381ION     NA58277  32.911  31.723   0.185
 5382ION     NA58278  17.787  27.163   9.500
 5383ION     NA58279  27.379  28.403   2.947
 5384ION     NA58280  29.793  14.107   7.751
 5385ION     NA58281  19.063  33.045   2.581
 5386ION     NA58282  32.047  22.099   2.547
 5387ION     NA58283  30.103   4.194   9.985
 5388ION     NA58284  14.923   7.617   1.718
 5389ION     NA58285  21.664  34.898   8.943
 5390ION     NA58286   7.732  35.240   8.310
 5391ION     NA58287   5.486   2.444   3.191
 5392ION     NA58288   1.157  14.099   1.494
 5393ION     NA58289  15.802   5.695   2.762
 5394ION     NA58290  28.031   0.617   3.362
 5395ION     NA58291  17.921  26.155   8.878
 5396ION     NA58292  21.960  23.190   0.322
 5397ION     NA58293  14.565  32.380   0.741
 5398ION     NA58294   0.718   2.484   3.194
 5399ION     NA58295  13.632  28.744   8.450
 5400ION     NA58296  28.391  21.903   0.515
 5401ION     NA58297  19.592  28.078   2.795
 5402ION     NA58298  15.538   3.474   1.012
 5403ION     NA58299   4.970  31.111   9.538
 5404ION     NA58300   0.688  10.494   1.466
 5405ION     NA58301  16.027  20.591   9.014
 5406ION     NA58302  30.024   4.186   8.586
 5407ION     NA58303   8.086  24.456   2.307
 5408ION     NA58304   4.204  18.313   9.402
 5409ION     NA58305  34.531  35.832   8.404
 5410ION     NA58306  26.819   1.058   0.888
 5411ION     NA58307  23.300  13.704   3.578
 5412ION     NA58308   9.123   8.428   3.040
 5413ION     NA58309  35.347   3.518   1.885
 5414ION     NA58310  24.679   8.123   3.092
 5415ION     NA58311  19.053  26.888   1.797
 5416ION     NA58312  30.160  15.989   8.614
 5417ION     NA58313  10.796  32.711   8.671
 5418ION     NA58314  23.565  28.734   2.834
 5419ION     NA58315   4.127  27.077   2.607
 5420ION     NA58316  20.167  21.633   3.509
 5421ION     NA58317  13.757  20.960  10.041
 5422ION     NA58318  24.061  27.970   1.678
 5423ION     NA58319  28.128   4.281   0.068
 5424ION     NA58320  19.240  13.450   8.718
 5425ION     NA58321  19.430  28.269   8.950
 5426ION     NA58322  34.314  24.293   3.131
 5427ION     NA58323  25.566  19.526   3.156
 5428ION     NA58324  13.679  17.357   7.816
 5429ION     NA58325  31.823   8.702   1.580
 5430ION     NA58326  35.337   1.956   0.835
 5431ION     NA58327   6.864  34.232   1.421
 5432ION     NA58328  24.664  24.704   0.520
 5433ION     NA58329  23.724  11.042   3.038
 5434ION     NA58330   7.300   7.605   3.046
 5435ION     NA58331  12.905  31.323   8.432
 5436ION     NA58332  29.887  25.670   0.282
 5437ION     NA58333  21.822  12.617   3.014
 5438ION     NA58334  24.619   5.429   1.182
 5439ION     NA58335  18.954   1.181   2.692
 5440ION     NA58336  26.118  10.893   9.942
 5441ION     NA58337  26.692  18.978   2.752
 5442ION     NA58338  27.580  20.666   9.779
 5443ION     NA58339   2.431  12.328   8.173
 5444ION     NA58340  30.569   9.314   3.231
 5445ION     NA58341  12.043  34.903   1.320
 5446ION     NA58342   1.510   4.760   2.520
 5447ION     NA58343  10.990  31.370   9.842
 5448ION     NA58344  31.741   3.892   2.428
 5449ION     NA58345  31.298   1.509   2.307
 5450ION     NA58346  30.378  27.656   1.026
 5451ION     NA58347  22.541  21.127   2.057
 5452ION     NA58348  18.729   2.738   7.679
 5453ION     NA58349  15.451   0.757   2.505
 5454ION     NA58350  25.772   2.662   8.084
 5455ION     NA58351  15.201  26.000   8.940
 5456ION     NA58352   3.673  25.292  10.238
 5457ION     NA58353   6.910  13.863   1.118
 5458ION     NA58354  26.668  17.246   0.377
 5459ION     NA58355  25.999  28.530   9.721
 5460ION     NA58356  34.353  29.468   9.041
 5461ION     NA58357   7.718   6.109   9.485
 5462ION     NA58358   7.783  14.449   8.785
 5463ION     NA58359  34.526   3.042   1.466
 5464ION     NA58360   6.164  30.755   9.007
 5465ION     NA58361  25.871  18.236   2.953
 5466ION     NA58362   0.533  22.939   3.215
 5467ION     NA58363  14.741  21.516   2.854
 5468ION     NA58364  33.746  16.419   3.636
 5469ION     NA58365  30.300   9.546   2.529
 5470ION     NA58366  32.033   1.711   2.421
 5471ION     NA58367  30.899   9.702   1.553
 5472ION     NA58368  11.848   1.359   8.667
 5473ION     NA58369  16.108  24.179   2.352
 5474ION     NA58370  25.477  15.101   1.991
 5475ION     NA58371   8.108  23.526   2.681
 5476ION     NA58372  29.151   4.133   9.277
 5477ION     NA58373  29.902  14.162   1.273
 5478ION     NA58374  26.233   4.790   2.801
 5479ION     NA58375  11.410   1.384   2.470
 5480ION     NA58376  27.203  13.933   9.227
 5481ION     NA58377  24.299  21.228   0.326
 5482ION     NA58378  24.988   9.674   2.643
 5483ION     NA58379  18.072  24.986   0.898
 5484ION     NA58380   3.322  35.334   2.678
 5485ION     NA58381   5.655  33.631   0.372
 5486ION     NA58382   2.366  23.551   8.002
 5487ION     NA58383  30.385  22.178   2.618
 5488ION     NA58384   6.610  20.852   1.617
 5489ION     NA58385   8.617   7.725   8.045
 5490ION     NA58386  11.507  27.757   8.419
 5491ION     NA58387   1.767  31.872   1.109
 5492ION     NA58388   8.835  14.694   9.354
 5493ION     NA58389  33.279   2.930   7.777
 5494ION     NA58390  30.248  25.696   2.493
 5495ION     NA58391  27.094   2.763   9.233
 5496ION     NA58392  25.659  30.098   8.574
 5497ION     NA58393  35.578   4.986   2.253
 5498ION     NA58394  20.299  34.354   0.808
 5499ION     NA58395  22.714  25.519   1.664
 5500ION     NA58396  24.784  20.697   3.248
 5501ION     NA58397  22.694  33.473   7.749
 5502ION     NA58398  28.822  32.721   2.869
 5503ION     NA58399  34.097  15.920   0.959
 5504ION     NA58400  30.368  10.952  10.119
 5505ION     NA58401   6.948   3.574   2.737
 5506ION     NA58402  33.604  24.780   0.851
 5507ION     NA58403  24.448   7.409   0.936
 5508ION     NA58404  25.616  19.943   2.549
 5509ION     NA58405   5.083  12.153  10.274
 5510ION     NA58406  33.346   0.058   2.813
 5511ION     NA58407  34.987   4.929   3.001
 5512ION     NA58408  11.849  21.768   9.540
 5513ION     NA58409   2.722  19.832   3.214
 5514ION     NA58410   4.649  17.048   9.684
 5515ION     NA58411  22.690   1.443   0.083
 5516ION     NA58412   5.356  10.315   1.299
 5517ION     NA58413  29.548  25.890   1.413
 5518ION     NA58414   0.981  26.269   2.469
 5519ION     NA58415  22.034  15.748   9.195
 5520ION     NA58416   3.846   9.701   0.847
 5521ION     NA58417  31.467  28.972   1.860
 5522ION     NA58418  16.195   4.458   8.901
 5523ION     NA58419  32.280   0.987   2.521
 5524ION     NA58420   1.051  22.973   2.540
 5525ION     NA58421   4.758   9.018   9.092
 5526ION     NA58422  17.735  10.863  10.083
 5527ION     NA58423   4.396  20.396   0.482
 5528ION     NA58424   3.961  14.968  10.326
 5529ION     NA58425  28.812  10.867   1.072
 5530ION     NA58426  34.275  16.366   0.448
 5531ION     NA58427  11.923  12.277   9.933
 5532ION     NA58428   6.751  14.464  10.024
 5533ION     NA58429   7.742  22.254   2.903
 5534ION     NA58430  18.769  23.757   3.017
 5535ION     NA58431   6.285  10.496   1.380
 5536ION     NA58432  20.714  24.454   7.676
 5537ION     NA58433  29.347  12.567   3.392
 5538ION     NA58434   8.694  15.314   7.917
 5539ION     NA58435  20.104   4.965   2.852
 5540ION     NA58436   7.880  15.941   9.660
 5541ION     NA58437  20.731   9.141   1.357
 5542ION     NA58438  33.273  25.905   3.009
 5543ION     NA58439  28.955   3.410   2.767
 5544ION     NA58440   3.985  34.154   9.085
 5545ION     NA58441  14.593  31.039   0.507
 5546ION     NA58442   0.899   5.071   1.395
 5547ION     NA58443   1.164  34.302   8.066
 5548ION     NA58444  34.210  24.573   8.587
 5549ION     NA58445  12.183  33.777   3.422
 5550ION     NA58446   3.333  21.625  10.333
 5551ION     NA58447  14.690  20.206   8.362
 5552ION     NA58448  23.873   4.603   2.765
 5553ION     NA58449   7.466  12.937   0.577
 5554ION     NA58450   9.635  35.133   8.708
 5555ION     NA58451  27.839  35.453   2.664
 5556ION     NA58452  17.366  13.692   1.155
 5557ION     NA58453   5.245  27.833   3.033
 5558ION     NA58454  14.698   9.503   0.708
 5559ION     NA58455   0.239   8.326   9.296
 5560ION     NA58456  18.431   1.574   2.234
 5561ION     NA58457  25.251  18.116   3.309
 5562ION     NA58458  32.450  15.220   1.519
 5563ION     NA58459   3.467  34.246   3.023
 5564ION     NA58460  29.130  23.250   0.448
 5565ION     NA58461  13.423  35.876  10.318
 5566ION     NA58462  23.090   0.070   3.104
 5567ION     NA58463  11.897  21.466   1.243
 5568ION     NA58464  33.507   8.056   3.060
 5569ION     NA58465  21.788  29.750   2.649
 5570ION     NA58466   7.069  35.661   8.873
 5571ION     NA58467  34.725  30.715   8.208
 5572ION     NA58468   4.168  30.836   9.583
 5573ION     NA58469  29.682  10.044   2.792
 5574ION     NA58470  17.037  30.008   3.143
 5575ION     NA58471  14.518  29.875   0.850
 5576ION     NA58472  15.817  28.275   1.093
 5577ION     NA58473   5.738  14.210  10.291
 5578ION     NA58474  28.007  22.915   9.755
 5579ION     NA58475  26.506  31.774   7.856
 5580ION     NA58476   4.396  26.888   0.201
 5581ION     NA58477   5.413   0.336   0.734
 5582ION     NA58478  12.237  34.349   7.764
 5583ION     NA58479  19.123  11.489   8.423
 5584ION     NA58480   7.061  16.135   1.108
 5585ION     NA58481  25.297   5.039   2.699
 5586ION     NA58482  25.431  18.522   2.085
 5587ION     NA58483  13.301  34.218   8.298
 5588ION     NA58484  28.854  17.863   8.543
 5589ION     NA58485  35.655   1.212   0.660
 5590ION     NA58486  24.309  11.008   0.169
 5591ION     NA58487  13.062  19.889   9.640
 5592ION     NA58488  23.403  28.486   9.129
 5593ION     NA58489  35.230   4.376   3.409
 5594ION     NA58490  19.486  17.574   3.456
 5595ION     NA58491   8.826   2.092   9.993
 5596ION     NA58492   5.292  28.280   0.183
 5597ION     NA58493  22.560  26.539   9.090
 5598ION     NA58494  10.149  19.226   9.760
 5599ION     NA58495  27.686  22.506   1.726
 5600ION     NA58496  32.815  32.684   3.167
 5601ION     NA58497   1.487  18.138   9.839
 5602ION     NA58498  12.476  14.590   0.369
 5603ION     NA58499  19.396   0.046   3.456
 5604ION     NA58500  17.708  30.790   9.466
 5605ION     NA58501  24.034   0.617   0.589
 5606ION     NA58502  24.523   7.921   9.241
 5607ION     NA58503   8.904  16.651   2.091
 5608ION     NA58504  22.282  35.791   0.771
 5609ION     NA58505  13.928  25.578   8.323
 5610ION     NA58506  32.675  28.996   0.056
 5611ION     NA58507  15.806  25.003   8.809
 5612ION     NA58508  29.120  25.372   1.928
 5613ION     NA58509   3.843   7.442   9.358
 5614ION     NA58510  12.338   5.879   8.976
 5615ION     NA58511  12.689  23.430   1.517
 5616ION     NA58512   7.523  32.456   9.451
 5617ION     NA58513  31.519   0.981   2.816
 5618ION     NA58514   0.031   6.038   0.842
 5619ION     NA58515   8.541   9.803   0.251
 5620ION     NA58516   6.132  14.016   9.730
 5621ION     NA58517  11.944   1.981   2.421
 5622ION     NA58518  23.702  17.001   2.562
 5623ION     NA58519   3.719  24.503   1.718
 5624ION     NA58520  34.617   6.998   2.571
 5625ION     NA58521  27.499   3.354   0.382
 5626ION     NA58522  29.959  24.306   0.730
 5627ION     NA58523   8.340  12.154  10.306
 5628ION     NA58524  19.623  13.209   2.402
 5629ION     NA58525  14.723  28.149   0.976
 5630ION     NA58526  13.335  19.290   8.817
 5631ION     NA58527   9.109  10.017   8.370
 5632ION     NA58528  30.120  35.666   8.270
 5633ION     NA58529  13.498  29.811   8.506
 5634ION     NA58530  34.296  23.280   2.695
 5635ION     NA58531  32.258  28.711   1.306
 5636ION     NA58532   5.059  19.354   9.490
 5637ION     NA58533  16.532  33.935   8.602
 5638ION     NA58534  20.302  29.137   2.694
 5639ION     NA58535   3.730   5.761   0.075
 5640ION     NA58536  16.258  20.283   9.870
 5641ION     NA58537  23.488  31.933   1.762
 5642ION     NA58538  18.570  14.174   2.355
 5643ION     NA58539   6.415  17.326   9.062
 5644ION     NA58540  12.534  35.469   1.686
 5645ION     NA58541  25.118  17.402   3.462
 5646ION     NA58542   1.687  31.899   2.682
 5647ION     NA58543  26.719   2.203   1.353
 5648ION     NA58544   9.105  34.699   7.462
 5649ION     NA58545  31.435  28.129   0.432
 5650ION     NA58546  34.472  20.439   2.280
 5651ION     NA58547   7.987  11.268   8.307
 5652ION     NA58548   0.474  22.075   0.190
 5653ION     NA58549  34.396   2.020   8.862
 5654ION     NA58550   2.363  25.035   3.581
 5655ION     NA58551  31.366  15.945   0.164
 5656ION     NA58552  26.326  12.613   1.510
 5657ION     NA58553  35.201  29.556   9.645
 5658ION     NA58554  24.449  20.952   1.838
 5659ION     NA58555  13.200  21.006   9.388
 5660ION     NA58556  33.891   4.994   2.086
 5661ION     NA58557  30.717   1.523   9.081
 5662ION     NA58558  19.412  19.657   9.586
 5663ION     NA58559   4.325   0.899   0.457
 5664ION     NA58560  25.082  21.348   3.267
 5665ION     NA58561   8.896   0.494   8.444
 5666ION     NA58562   4.245  32.386   0.925
 5667ION     NA58563  27.586  33.947   0.805
 5668ION     NA58564  17.391  33.961   1.447
 5669ION     NA58565  35.859  27.828   0.395
 5670ION     NA58566  25.654  11.116   3.020
 5671ION     NA58567  28.180   0.548   2.360
 5672ION     NA58568  26.058   3.760   2.438
 5673ION     NA58569  33.762  20.309   1.878
 5674ION     NA58570  24.152  10.396   2.680
 5675ION     NA58571  27.725   2.275   9.155
 5676ION     NA58572  23.033  15.533   8.839
 5677ION     NA58573  31.292  27.295  10.061
 5678ION     NA58574  13.274   3.605   3.103
 5679ION     NA58575  28.948  34.911   1.206
 5680ION     NA58576   9.043   6.347   9.214
 5681ION     NA58577  16.646   7.383   1.734
 5682ION     NA58578  19.771  24.330   3.155
 5683ION     NA58579   1.925   5.098   0.986
 5684ION     NA58580  34.059  35.829   0.404
 5685ION     NA58581  22.579  34.589   2.132
 5686ION     NA58582  26.706   6.531   1.191
 5687ION     NA58583  13.203  14.557   1.607
 5688ION     NA58584   3.900  11.833   2.445
 5689ION     NA58585  34.784  32.857  10.035
 5690ION     NA58586  28.883   7.722   7.443
 5691ION     NA58587  26.826  16.835   2.775
 5692ION     NA58588  10.830  23.489   0.906
 5693ION     NA58589  24.679  13.053   9.294
 5694ION     NA58590  13.204  11.989   3.064
 5695ION     NA58591  13.642  32.069   8.970
 5696ION     NA58592  24.715   4.544   3.052
 5697ION     NA58593  10.661   3.129   2.248
 5698ION     NA58594  24.642  23.041   8.740
 5699ION     NA58595   3.927  16.600   3.052
 5700ION     NA58596  23.249   3.703   8.405
 5701ION     NA58597  18.326  10.670   0.030
 5702ION     NA58598  14.539  24.443   3.112
 5703ION     NA58599   1.103  16.814   3.534
 5704ION     NA58600  17.406  15.582   2.620
 5705ION     NA58601  26.736   6.259   2.282
 5706ION     NA58602  27.748  21.163   2.104
 5707ION     NA58603  27.835  12.120   8.825
 5708ION     NA58604  28.789  34.349  10.000
 5709ION     NA58605   6.446   3.242   2.501
 5710ION     NA58606  35.574   7.141   0.807
 5711ION     NA58607  13.562  31.443   1.391
 5712ION     NA58608  35.971   2.716   3.093
 5713ION     NA58609  11.330  35.328   2.353
 5714ION     NA58610   7.015   5.382  10.181
 5715ION     NA58611  12.066  33.267   3.901
 5716ION     NA58612   5.212  14.361   3.511
 5717ION     NA58613   8.811  31.974   0.909
 5718ION     NA58614  15.648  32.337   9.133
 5719ION     NA58615  17.779  25.137   3.588
 5720ION     NA58616   4.836  32.831   1.996
 5721ION     NA58617  35.231   5.447   2.567
 5722ION     NA58618  18.152  17.568   8.169
 5723ION     NA58619  22.033  25.848   1.337
 5724ION     NA58620  18.544  34.524   2.383
 5725ION     NA58621  22.630  20.421   8.175
 5726ION     NA58622  35.621  25.282  10.027
 5727ION     NA58623  10.174  23.555   1.320
 5728ION     NA58624  10.907  21.142   2.075
 5729ION     NA58625  19.425  13.439   1.552
 5730ION     NA58626  17.707   4.023   3.336
 5731ION     NA58627  35.738  31.638  10.010
 5732ION     NA58628  21.256  13.010   3.646
 5733ION     NA58629  20.575  32.292   8.519
 5734ION     NA58630   6.388   8.771   2.035
 5735ION     NA58631  29.457  22.301   8.849
 5736ION     NA58632   2.451  10.278   1.184
 5737ION     NA58633  16.778   9.492   2.480
 5738ION     NA58634   4.556  23.941   1.233
 5739ION     NA58635  34.553  20.880   8.855
 5740ION     NA58636  23.262  34.411   1.712
 5741ION     NA58637  20.729  35.798   0.988
 5742ION     NA58638  19.540  22.017   3.511
 5743ION     NA58639  24.655  20.122   9.291
 5744ION     NA58640  24.368  24.158   2.326
 5745ION     NA58641  22.285  18.634   0.133
 5746ION     NA58642  27.566  16.516   2.394
 5747ION     NA58643   2.943  27.519   9.167
 5748ION     NA58644   4.199  20.568   8.513
 5749ION     NA58645  11.301  34.824   8.832
 5750ION     NA58646   5.562   3.323   7.665
 5751ION     NA58647   9.609  21.806   2.122
 5752ION     NA58648   4.858  22.845   8.035
 5753ION     NA58649   9.938  22.674   1.429
 5754ION     NA58650  11.505   6.735   7.854
 5755ION     NA58651  12.630  21.940   2.198
 5756ION     NA58652  24.467  31.514   3.019
 5757ION     NA58653  25.235  34.601   9.469
 5758ION     NA58654  27.065  10.778   1.204
 5759ION     NA58655  19.643  14.933   0.930
 5760ION     NA58656   7.631  26.043   2.364
 5761ION     NA58657   7.753  30.448   3.182
 5762ION     NA58658  10.079  29.918   0.959
 5763ION     NA58659  35.672  26.885   1.912
 5764ION     NA58660  28.659  30.228   1.466
 5765ION     NA58661  10.684  24.778   1.832
 5766ION     NA58662   5.606  32.057   7.659
 5767ION     NA58663  22.268   9.773   9.491
 5768ION     NA58664  25.809   1.758   8.792
 5769ION     NA58665  16.218  16.331   9.118
 5770ION     NA58666  23.887  19.044   9.328
 5771ION     NA58667   8.305  19.649   9.191
 5772ION     NA58668  25.594  17.449  10.154
 5773ION     NA58669  33.804   2.311   0.151
 5774ION     NA58670  22.771  20.748   2.754
 5775ION     NA58671  25.795  22.927   3.095
 5776ION     NA58672   2.382  28.514   7.745
 5777ION     NA58673  27.040   9.061  10.076
 5778ION     NA58674   5.088  22.833   9.568
 5779ION     NA58675  13.017  28.926   9.542
 5780ION     NA58676  14.896  19.647   9.016
 5781ION     NA58677   1.071  10.366   8.241
 5782ION     NA58678  20.364   6.314   3.064
 5783ION     NA58679  26.300  31.157   1.540
 5784ION     NA58680  16.740  32.650   9.386
 5785ION     NA58681   3.952  19.074   2.806
 5786ION     NA58682  30.396  22.661   7.302
 5787ION     NA58683  18.254  25.685   3.261
 5788ION     NA58684   4.939  16.777   2.885
 5789ION     NA58685   2.934  23.482   1.598
 5790ION     NA58686  31.638  23.168   8.035
 5791ION     NA58687  24.942  34.429   3.069
 5792ION     NA58688  25.028  29.844   1.041
 5793ION     NA58689  13.354  18.844  10.260
 5794ION     NA58690  30.672  10.260   8.086
 5795ION     NA58691  34.429  14.783   3.675
 5796ION     NA58692  28.796   6.255   0.430
 5797ION     NA58693  13.002   2.338   1.104
 5798ION     NA58694   4.728   6.789   0.137
 5799ION     NA58695  14.256  32.950  10.181
 5800ION     NA58696  16.676  28.762   8.890
 5801ION     NA58697   7.953  17.844   2.714
 5802ION     NA58698  11.985  10.517   2.646
 5803ION     NA58699   6.961  23.563   3.112
 5804ION     NA58700  35.492  21.288   1.551
 5805ION     NA58701  12.828  10.541   2.968
 5806ION     NA58702  27.161  24.619   8.129
 5807ION     NA58703   4.282  33.947   3.234
 5808ION     NA58704  29.730  10.284   9.089
 5809ION     NA58705  27.782   1.682   8.802
 5810ION     NA58706  10.522   1.983   1.967
 5811ION     NA58707  20.839  12.289   3.518
 5812ION     NA58708  31.443  13.137   2.436
 5813ION     NA58709  13.042  22.557   8.060
 5814ION     NA58710   3.039   7.190   1.073
 5815ION     NA58711  29.126  26.412   1.827
 5816ION     NA58712   2.314  24.375   2.862
 5817ION     NA58713   3.512  25.132   9.572
 5818ION     NA58714  18.568  14.543   9.040
 5819ION     NA58715  27.604   5.044   2.599
 5820ION     NA58716  35.030   9.370   0.841
 5821ION     NA58717  28.985  27.455   3.398
 5822ION     NA58718   3.900  27.622   8.917
 5823ION     NA58719   9.372  25.740   2.548
 5824ION     NA58720  16.719  24.036   3.021
 5825ION     NA58721   7.049  18.156   8.378
 5826ION     NA58722  31.922   8.270   2.860
 5827ION     NA58723   6.475  35.258   1.571
 5828ION     NA58724  29.037   5.537   0.231
 5829ION     NA58725   5.328  15.031   2.261
 5830ION     NA58726  21.465  25.742   2.757
 5831ION     NA58727  20.457   7.559   8.261
 5832ION     NA58728  21.868  21.868   1.800
 5833ION     NA58729  23.746  23.645   2.656
 5834ION     NA58730   0.480   5.404   2.487
 5835ION     NA58731  25.504  11.847   0.967
 5836ION     NA58732  32.219   1.467   1.570
 5837ION     NA58733  20.063   3.281   0.899
 5838ION     NA58734  22.894   0.336   9.687
 5839ION     NA58735  16.015  33.403   8.299
 5840ION     NA58736  13.025  24.507  10.066
 5841ION     NA58737  20.079  17.306   3.251
 5842ION     NA58738   1.875  27.785   2.420
 5843ION     NA58739  32.735  33.583   0.314
 5844ION     NA58740  29.419  20.787   1.923
 5845ION     NA58741  13.449   5.669  10.169
 5846ION     NA58742  30.103  28.026   8.862
 5847ION     NA58743  25.797  11.094   0.878
 5848ION     NA58744   0.118  13.512   8.939
 5849ION     NA58745  25.436   0.977   0.356
 5850ION     NA58746   9.868  20.135   0.194
 5851ION     NA58747   7.651  27.123   0.667
 5852ION     NA58748   1.962  15.647   1.404
 5853ION     NA58749   3.428  23.942   0.566
 5854ION     NA58750  16.712   3.585   9.382
 5855ION     NA58751  22.136  27.351  10.040
 5856ION     NA58752   9.977  32.664   2.705
 5857ION     NA58753   1.976  30.829   2.665
 5858ION     NA58754  16.124  10.777   0.490
 5859ION     NA58755  34.152  26.121   3.492
 5860ION     NA58756  23.730  26.055   9.320
 5861ION     NA58757   5.500  11.686   0.563
 5862ION     NA58758  15.550  18.644   9.277
 5863ION     NA58759  13.212  29.606   9.678
 5864ION     NA58760  35.747  21.260  10.225
 5865ION     NA58761   9.886  17.173   1.546
 5866ION     NA58762  26.853  18.710   2.079
 5867ION     NA58763  11.997   8.962   9.929
 5868ION     NA58764  20.313  21.172   2.975
 5869ION     NA58765  32.504  29.320   3.031
 5870ION     NA58766  11.374  25.391  10.050
 5871ION     NA58767  12.492  31.442   2.212
 5872ION     NA58768   4.474   1.296   3.149
 5873ION     NA58769   2.654  20.013   2.607
 5874ION     NA58770  21.058   1.394   2.614
 5875ION     NA58771   8.135  11.849   8.478
 5876ION     NA58772  20.882   6.831   2.781
 5877ION     NA58773   4.368  15.803   2.283
 5878ION     NA58774  34.280  15.367   3.277
 5879ION     NA58775  23.306  28.208   8.551
 5880ION     NA58776   5.979  24.639   8.896
 5881ION     NA58777  25.416  21.166   2.639
 5882ION     NA58778  13.792  10.369   0.828
 5883ION     NA58779  32.667  25.182   8.456
 5884ION     NA58780   6.966   3.903   0.623
 5885ION     NA58781   3.925   7.506   2.308
 5886ION     NA58782  32.113   6.098   7.831
 5887ION     NA58783  25.101  29.739   8.756
 5888ION     NA58784  13.121  13.312   2.645
 5889ION     NA58785  26.113  25.931   1.353
 5890ION     NA58786   0.335   7.750   0.187
 5891ION     NA58787  25.138   0.369   3.467
 5892ION     NA58788  18.159  31.268   2.501
 5893ION     NA58789  35.114   5.483   1.669
 5894ION     NA58790   3.972  33.922   2.427
 5895ION     NA58791  14.671  10.604   2.812
 5896ION     NA58792   0.044  26.367   8.463
 5897ION     NA58793  22.149  31.636  10.105
 5898ION     NA58794  16.538  25.393   2.347
 5899ION     NA58795   4.366  24.928   9.190
 5900ION     NA58796   8.552  30.522   2.535
 5901ION     NA58797  23.593   2.503   1.877
 5902ION     NA58798   8.647   4.431   8.777
 5903ION     NA58799   9.139   2.756  10.307
 5904ION     NA58800   4.917  20.151   2.000
 5905ION     NA58801   5.742   0.527   1.570
 5906ION     NA58802  23.671  20.912   1.489
 5907ION     NA58803  13.680  12.909   7.283
 5908ION     NA58804  26.266  18.228   8.372
 5909ION     NA58805  35.898   0.036   2.244
 5910ION     NA58806  18.404  26.947  10.216
 5911ION     NA58807  31.568  25.632   9.597
 5912ION     NA58808   2.771  30.792   3.005
 5913ION     NA58809  11.673   6.237   8.853
 5914ION     NA58810   6.750   7.499   3.423
 5915ION     NA58811  16.778  31.942   1.880
 5916ION     NA58812  20.589  27.918   2.430
 5917ION     NA58813  34.578   7.681   0.236
 5918ION     NA58814  13.956  15.730   2.101
 5919ION     NA58815  10.313  11.464   0.540
 5920ION     NA58816   2.515  21.704  10.155
 5921ION     NA58817  31.172  31.900   0.394
 5922ION     NA58818  28.442  15.179   0.608
 5923ION     NA58819  27.350  17.285   3.166
 5924ION     NA58820  25.097   5.916   2.843
 5925ION     NA58821  28.849  21.014   8.658
 5926ION     NA58822  31.486  12.466   8.400
 5927ION     NA58823   1.369  19.923   9.926
 5928ION     NA58824  23.396   8.370   9.247
 5929ION     NA58825  21.671  24.075   1.167
 5930ION     NA58826   2.774  22.956   0.348
 5931ION     NA58827  14.206  10.478   3.022
 5932ION     NA58828  28.938   6.745   9.509
 5933ION     NA58829  26.595  19.058   9.338
 5934ION     NA58830   8.569  34.125   0.481
 5935ION     NA58831  19.335   5.754   2.831
 5936ION     NA58832   7.913  23.837   7.691
 5937ION     NA58833  30.896  12.802   2.993
 5938ION     NA58834  18.712  17.275   3.275
 5939ION     NA58835  16.181  34.124   9.620
 5940ION     NA58836   2.194  18.375   3.207
 5941ION     NA58837  11.978   9.300   0.119
 5942ION     NA58838   9.595  31.867  10.236
 5943ION     NA58839  25.360   7.857   8.695
 5944ION     NA58840  27.576   9.169   2.977
 5945ION     NA58841   5.995  26.220   1.100
 5946ION     NA58842  22.395   5.949   9.871
 5947ION     NA58843  34.568   6.555   9.391
 5948ION     NA58844  11.418  19.711   8.185
 5949ION     NA58845  35.376  27.016   9.166
 5950ION     NA58846  21.653  12.075   3.356
 5951ION     NA58847  13.051   0.030   8.686
 5952ION     NA58848  30.847  17.220   9.535
 5953ION     NA58849   6.501  23.309   2.584
 5954ION     NA58850  11.370   4.980   3.001
 5955ION     NA58851   4.309  16.105   3.358
 5956ION     NA58852   6.028  17.690   2.061
 5957ION     NA58853   8.207   1.453   0.134
 5958ION     NA58854  24.719  35.067   9.702
 5959ION     NA58855   3.526   0.893   2.986
 5960ION     NA58856  12.196  11.127   7.055
 5961ION     NA58857  16.394   8.835   9.382
 5962ION     NA58858  34.142   6.365   0.384
 5963ION     NA58859   9.044   3.929   9.563
 5964ION     NA58860  11.406   4.934   8.871
 5965ION     NA58861  21.472  25.145   1.695
 5966ION     NA58862  31.893   6.025   2.602
 5967ION     NA58863  23.773  22.091   9.161
 5968ION     NA58864  19.568   4.034   0.979
 5969ION     NA58865  12.320  14.836   9.617
 5970ION     NA58866   2.183  16.582   9.778
 5971ION     NA58867  18.666   1.885   9.177
 5972ION     NA58868   6.436  26.061   9.796
 5973ION     NA58869  24.360  23.988   9.694
 5974ION     NA58870   6.213   7.606   1.933
 5975ION     NA58871  20.672   5.361   8.805
 5976ION     NA58872  20.285  11.980   1.147
 5977ION     NA58873  20.253  31.216   9.009
 5978ION     NA58874   0.248  22.186   8.167
 5979ION     NA58875  26.466  28.189   8.277
 5980ION     NA58876  27.384   6.063   1.159
 5981ION     NA58877  28.390  29.607   1.405
 5982ION     NA58878  30.917  23.881   0.269
 5983ION     NA58879  11.103  29.133   0.409
 5984ION     NA58880  10.241  30.376   1.492
 5985ION     NA58881  11.202  25.847   1.304
 5986ION     NA58882  34.962  29.410   0.184
 5987ION     NA58883  13.709   1.729   1.358
 5988ION     NA58884  19.499  26.600   0.610
 5989ION     NA58885   5.780  17.500   0.598
 5990ION     NA58886  32.942  35.847   1.594
 5991ION     NA58887   1.697  33.057   8.884
 5992ION     NA58888  19.113  27.996   9.772
 5993ION     NA58889  31.826   2.795   2.101
 5994ION     NA58890  26.248  32.333   0.577
 5995ION     NA58891  28.300   1.193   2.849
 5996ION     NA58892  25.851  25.062   2.942
 5997ION     NA58893  16.313   8.162   3.378
 5998ION     NA58894  17.713  25.490   2.368
 5999ION     NA58895   7.945  25.709   7.721
 6000ION     NA58896   7.651  25.183   1.078
 6001ION     NA58897  12.311  29.942   7.871
 6002ION     NA58898  21.262  32.870   2.681
 6003ION     NA58899   0.473  24.401   9.337
 6004ION     NA58900   7.546  26.759   2.283
 6005ION     NA58901  33.463  13.874   1.802
 6006ION     NA58902  14.048  13.746   7.891
 6007ION     NA58903  30.970  35.064   1.708
 6008ION     NA58904   8.012  20.741   0.692
 6009ION     NA58905   0.075   3.195   2.713
 6010ION     NA58906  20.639  13.008   2.346
 6011ION     NA58907   2.442  31.489   1.356
 6012ION     NA58908  11.680  28.844   8.608
 6013ION     NA58909  27.805  27.391   9.569
 6014ION     NA58910  19.391  28.127   1.380
 6015ION     NA58911  11.066   2.802   8.987
 6016ION     NA58912  26.067  28.341   3.062
 6017ION     NA58913  33.111  23.407   8.373
 6018ION     NA58914  24.782   4.820   2.217
 6019ION     NA58915  20.619  26.630   3.047
 6020ION     NA58916   2.187  20.582   2.639
 6021ION     NA58917  17.602   1.903   9.758
 6022ION     NA58918  23.485   3.215   9.569
 6023ION     NA58919  17.952  19.126   3.046
 6024ION     NA58920  23.296  15.587   2.883
 6025ION     NA58921   7.806  21.465   2.976
 6026ION     NA58922  31.396  29.206   3.478
 6027ION     NA58923   4.283  29.949   2.601
 6028ION     NA58924   1.192  24.550   3.499
 6029ION     NA58925   5.246   4.492   0.764
 6030ION     NA58926  12.305  20.629   1.483
 6031ION     NA58927   8.737   7.875   9.814
 6032ION     NA58928   8.254  35.734   9.106
 6033ION     NA58929  13.665  33.068   9.088
 6034ION     NA58930  11.465  12.079   2.464
 6035ION     NA58931  10.209  20.438  10.007
 6036ION     NA58932  11.198   4.364   9.479
 6037ION     NA58933   0.857  25.216   3.881
 6038ION     NA58934  18.311   5.691   1.676
 6039ION     NA58935  24.075  27.824   2.925
 6040ION     NA58936  22.214   1.165   2.150
 6041ION     NA58937   4.752  11.831   3.445
 6042ION     NA58938  27.005  31.923   2.380
 6043ION     NA58939  20.017   7.006   9.024
 6044ION     NA58940  10.999  15.542   9.110
 6045ION     NA58941  35.980   5.439   2.966
 6046ION     NA58942  17.294  23.195   2.170
 6047ION     NA58943  20.096  30.206   2.865
 6048ION     NA58944   5.722   3.511   2.778
 6049ION     NA58945   5.998  23.583   3.138
 6050ION     NA58946   6.651   7.740   2.705
 6051ION     NA58947  28.861  28.099   9.058
 6052ION     NA58948   0.107  21.072   1.266
 6053ION     NA58949  25.574  27.488   7.203
 6054ION     NA58950   4.312  11.001   3.592
 6055ION     NA58951   0.114   3.332   8.235
 6056ION     NA58952  10.220  26.140   7.483
 6057ION     NA58953   4.785  33.552   0.284
 6058ION     NA58954   7.175  26.578   2.861
 6059ION     NA58955  33.327  33.119   2.982
 6060ION     NA58956  25.439   8.258   9.317
 6061ION     NA58957   3.098  21.423   3.174
 6062ION     NA58958  28.042  29.389   7.261
 6063ION     NA58959   8.018  25.003   8.291
 6064ION     NA58960  14.681  25.973   9.894
 6065ION     NA58961  11.071  14.774   0.437
 6066ION     NA58962  15.500  24.163   1.335
 6067ION     NA58963  16.647  24.455   2.543
 6068ION     NA58964  30.943  12.600   0.002
 6069ION     NA58965  30.279   0.682   9.259
 6070ION     NA58966  32.946  26.621   7.439
 6071ION     NA58967  10.219  18.685   8.554
 6072ION     NA58968   2.505   1.389   1.364
 6073ION     NA58969  25.067   4.248   8.071
 6074ION     NA58970   8.241   5.653   1.959
 6075ION     NA58971   2.095  24.187   2.141
 6076ION     NA58972  10.557  21.379   7.716
 6077ION     NA58973  27.681  11.126   3.683
 6078ION     NA58974   1.901  35.683   2.038
 6079ION     NA58975  22.443  20.680   1.530
 6080ION     NA58976  12.660  31.655   9.325
 6081ION     NA58977  20.990   6.985   8.678
 6082ION     NA58978  36.012   4.200   2.217
 6083ION     NA58979  27.510  32.115   3.196
 6084ION     NA58980  20.001   9.400   0.126
 6085ION     NA58981  11.689  23.924   8.192
 6086ION     NA58982  13.784  26.612   0.152
 6087ION     NA58983  20.014  22.067   2.888
 6088ION     NA58984  15.741   0.455   9.611
 6089ION     NA58985  26.881  34.323   8.876
 6090ION     NA58986  31.963  35.777   3.036
 6091ION     NA58987  21.732   2.215   2.694
 6092ION     NA58988   6.655  30.089   8.209
 6093ION     NA58989  20.817  17.630   1.440
 6094ION     NA58990   7.548  23.931   8.426
 6095ION     NA58991  12.697  23.674   2.526
 6096ION     NA58992  23.154   2.736   2.921
 6097ION     NA58993  28.774  15.639   9.499
 6098ION     NA58994  20.713  22.381   9.241
 6099ION     NA58995  20.794  11.630   9.279
 6100ION     NA58996   7.893   5.871   0.718
 6101ION     NA58997  16.152  20.255   1.705
 6102ION     NA58998  12.117  32.837   1.783
 6103ION     NA58999  33.409  28.310   9.395
 6104ION     NA59000  29.372   0.592   9.468
 6105ION     NA59001   7.103   6.942   2.473
 6106ION     NA59002  28.546  12.572   9.600
 6107ION     NA59003   8.608  26.148   8.227
 6108ION     NA59004  25.594  32.235   3.050
 6109ION     NA59005  11.348  32.081   8.622
 6110ION     NA59006  15.499  18.852   9.947
 6111ION     NA59007  20.161  28.209   0.057
 6112ION     NA59008   3.348  30.911   7.730
 6113ION     NA59009  10.028   1.143   0.365
 6114ION     NA59010   9.517  26.769   2.866
 6115ION     NA59011  24.420  16.903   8.817
 6116ION     NA59012  22.636  19.658   2.676
 6117ION     NA59013  15.324  22.210   2.100
 6118ION     NA59014   9.385  20.656   0.775
 6119ION     NA59015  28.156   7.308   1.668
 6120ION     NA59016  28.017   4.635   1.879
 6121ION     NA59017  29.492  26.718   2.594
 6122ION     NA59018  14.912  13.520   0.007
 6123ION     NA59019  27.059  33.085   0.992
 6124ION     NA59020  31.337  12.230   9.630
 6125ION     NA59021   1.211  34.418   9.374
 6126ION     NA59022  19.773  33.147   8.686
 6127ION     NA59023  13.583  21.724   0.472
 6128ION     NA59024  20.206   6.913   1.820
 6129ION     NA59025  24.060   8.817   9.826
 6130ION     NA59026   0.145  22.236   1.426
 6131ION     NA59027  18.713   2.112   3.055
 6132ION     NA59028  20.468  13.574   3.552
 6133ION     NA59029  32.790  17.392   9.319
 6134ION     NA59030  13.303   1.222   1.096
 6135ION     NA59031   3.489   5.681   9.485
 6136ION     NA59032  34.861  25.182   1.351
 6137ION     NA59033  29.255  30.020   1.691
 6138ION     NA59034  22.941  18.391   1.080
 6139ION     NA59035  20.579  11.834   2.237
 6140ION     NA59036   7.022  14.154   2.587
 6141ION     NA59037  14.355   6.011   3.267
 6142ION     NA59038  20.621  11.386   3.465
 6143ION     NA59039   2.051  12.337   3.327
 6144ION     NA59040   4.669  25.520   2.221
 6145ION     NA59041  17.534  23.438   7.442
 6146ION     NA59042  20.311  24.064   9.305
 6147ION     NA59043  20.945   8.156   2.503
 6148ION     NA59044  16.074   7.108   8.449
 6149ION     NA59045   0.082   9.984   2.339
 6150ION     NA59046   8.200  29.898   2.755
 6151ION     NA59047  14.589   1.186   2.618
 6152ION     NA59048  30.584  13.828   2.167
 6153ION     NA59049   2.653  33.590   3.374
 6154ION     NA59050  16.932  29.046   0.073
 6155ION     NA59051  13.720  35.297   2.922
 6156ION     NA59052   3.760  19.543   9.081
 6157ION     NA59053  13.341  14.628   0.445
 6158ION     NA59054  33.477   5.659   1.115
 6159ION     NA59055  29.939  25.077   2.328
 6160ION     NA59056  34.794  29.955   1.152
 6161ION     NA59057  33.145  23.247   0.025
 6162ION     NA59058  33.367  22.728   2.061
 6163ION     NA59059  26.442   1.858   0.433
 6164ION     NA59060  23.414  34.895   8.761
 6165ION     NA59061  29.044   1.346   0.966
 6166ION     NA59062  19.016  12.686   3.254
 6167ION     NA59063  17.571   0.433   9.149
 6168ION     NA59064  26.257   2.271   3.242
 6169ION     NA59065   8.492  18.809  10.046
 6170ION     NA59066   7.972   7.084   2.674
 6171ION     NA59067   8.235  11.313   3.004
 6172ION     NA59068  11.335  17.577   2.977
 6173ION     NA59069   1.765  20.910   8.977
 6174ION     NA59070   0.238  19.732   2.363
 6175ION     NA59071  28.300  25.176   2.917
 6176ION     NA59072  11.282  30.565   7.808
 6177ION     NA59073   3.942  14.371   2.973
 6178ION     NA59074   8.533  24.419   2.850
 6179ION     NA59075  34.998   8.922   2.690
 6180ION     NA59076  26.780  20.909   2.606
 6181ION     NA59077  27.723   3.466   3.320
 6182ION     NA59078  11.457   2.130   2.003
 6183ION     NA59079   4.881  10.563   9.640
 6184ION     NA59080  25.543  23.500   2.030
 6185ION     NA59081  34.429   8.576   0.009
 6186ION     NA59082  27.547  35.200   8.490
 6187ION     NA59083  20.125   7.056   3.191
 6188ION     NA59084   4.887  31.972   1.137
 6189ION     NA59085  13.159  27.112  10.181
 6190ION     NA59086   1.975  35.350   0.744
 6191ION     NA59087   7.680   3.268   2.092
 6192ION     NA59088  30.814  31.753  10.215
 6193ION     NA59089  23.631  28.207   2.196
 6194ION     NA59090   9.984  20.509   8.678
 6195ION     NA59091   7.624  21.862   2.126
 6196ION     NA59092  26.103   8.570   9.880
 6197ION     NA59093  17.208   0.733   7.620
 6198ION     NA59094   3.225  31.990   2.917
 6199ION     NA59095   4.632  17.102   8.496
 6200ION     NA59096  17.767  24.839   2.055
 6201ION     NA59097  16.101   6.575   0.706
 6202ION     NA59098  25.288  24.978   2.004
 6203ION     NA59099  20.295  21.590   1.358
 6204ION     NA59100   3.512  24.192   3.067
 6205ION     NA59101   8.870  12.386   2.293
 6206ION     NA59102  26.213  23.577   8.790
 6207ION     NA59103  33.751  22.809   9.246
 6208ION     NA59104  28.746   3.590   1.810
 6209ION     NA59105   2.902  36.013  10.220
 6210ION     NA59106  13.356  31.029   2.746
 6211ION     NA59107  18.200  32.794   3.120
 6212ION     NA59108  27.058  31.965   1.329
 6213ION     NA59109   8.150  27.566   0.085
 6214ION     NA59110  12.548  32.500  10.266
 6215ION     NA59111  25.244  20.453   2.792
 6216ION     NA59112  12.235   0.277   2.030
 6217ION     NA59113  11.148   2.311   2.750
 6218ION     NA59114  33.840  29.679   8.124
 6219ION     NA59115  31.003   3.970   3.062
 6220ION     NA59116  19.788   9.594   3.533
 6221ION     NA59117   2.929  19.078   8.279
 6222ION     NA59118  24.945  35.998   0.990
 6223ION     NA59119   8.177   3.346   1.572
 6224ION     NA59120  25.197  17.459   2.229
 6225ION     NA59121   2.873  29.184   9.658
 6226ION     NA59122   3.389  34.560   8.747
 6227ION     NA59123  32.080  23.983   3.168
 6228ION     NA59124  24.865   2.424   8.930
 6229ION     NA59125   7.203  14.470   0.742
 6230ION     NA59126  27.923   6.485   9.416
 6231ION     NA59127  15.402   2.424  10.026
 6232ION     NA59128   2.140  27.928   1.427
 6233ION     NA59129  30.128  25.231   1.718
 6234ION     NA59130  23.380  17.909   3.512
 6235ION     NA59131  21.346   7.371   3.080
 6236ION     NA59132  29.352  27.337   0.356
 6237ION     NA59133   9.346  17.899   9.656
 6238ION     NA59134   2.143   0.909   0.412
 6239ION     NA59135  35.428  23.014   9.361
 6240ION     NA59136   0.594   4.340   1.236
 6241ION     NA59137  11.708  20.126   7.619
 6242ION     NA59138  23.213   3.594   2.948
 6243ION     NA59139  14.335  33.467   1.417
 6244ION     NA59140  12.187  18.436   0.066
 6245ION     NA59141   9.449  31.878   1.181
 6246ION     NA59142  26.329  22.038   8.942
 6247ION     NA59143  11.014  29.889   1.850
 6248ION     NA59144  27.068  21.657   1.858
 6249ION     NA59145  20.011   5.695   0.985
 6250ION     NA59146   8.491  30.534   7.977
 6251ION     NA59147  30.491  23.687   2.319
 6252ION     NA59148  34.714  13.671   2.237
 6253ION     NA59149   9.010  15.091   0.362
 6254ION     NA59150  30.248  18.864  10.157
 6255ION     NA59151  32.028  10.344   0.475
 6256ION     NA59152  15.599  24.773   2.371
 6257ION     NA59153   2.605  20.977   0.432
 6258ION     NA59154   9.089   3.060   9.643
 6259ION     NA59155  24.319  31.428   2.347
 6260ION     NA59156   2.002   6.024   7.761
 6261ION     NA59157  23.933  16.177   9.159
 6262ION     NA59158  30.477   7.750   8.961
 6263ION     NA59159  28.538   0.856   1.441
 6264ION     NA59160  20.094   7.415   2.683
 6265ION     NA59161  34.832  34.136   2.534
 6266ION     NA59162  23.320   5.234   2.540
 6267ION     NA59163  18.038  32.308   0.885
 6268ION     NA59164  21.081  13.018  10.216
 6269ION     NA59165   5.519   0.103   2.083
 6270ION     NA59166   2.562  13.558   3.681
 6271ION     NA59167  35.160  24.249   2.354
 6272ION     NA59168  21.485   4.382   1.527
 6273ION     NA59169   0.105  12.564   2.516
 6274ION     NA59170  24.734   1.470   8.883
 6275ION     NA59171   2.713  23.648   3.149
 6276ION     NA59172   7.919  12.120   2.575
 6277ION     NA59173  19.952  31.209   9.777
 6278ION     NA59174   5.710   9.783   2.848
 6279ION     NA59175  31.535  20.300   3.021
 6280ION     NA59176  33.214   1.154   3.132
 6281ION     NA59177  11.787  31.418   9.234
 6282ION     NA59178   6.427  24.218   3.004
 6283ION     NA59179  23.402  24.647   8.885
 6284ION     NA59180  33.296   1.090   1.396
 6285ION     NA59181  18.797  12.167   9.904
 6286ION     NA59182   0.179  18.885   0.287
 6287ION     NA59183  30.329  26.367   2.023
 6288ION     NA59184  23.730   9.691   8.199
 6289ION     NA59185  18.219  11.710   0.537
 6290ION     NA59186  33.254   1.231   0.620
 6291ION     NA59187  33.229   9.938   8.955
 6292ION     NA59188  18.050  15.318   2.363
 6293ION     NA59189  19.556  20.950   3.140
 6294ION     NA59190  22.258  28.518   8.447
 6295ION     NA59191  27.002  15.536   2.493
 6296ION     NA59192  26.070   0.492   8.897
 6297ION     NA59193   8.086  20.039   1.586
 6298ION     NA59194  35.111   3.556   2.988
 6299ION     NA59195  14.797  21.240   9.696
 6300ION     NA59196   5.091  26.306   1.710
 6301ION     NA59197  31.465  24.951   0.860
 6302ION     NA59198  32.552  11.113   9.358
 6303ION     NA59199   4.812   0.732   8.993
 6304ION     NA59200  30.493   0.658   2.615
 6305ION     NA59201   5.198  11.338   3.269
 6306ION     NA59202  24.801  17.744   8.169
 6307ION     NA59203  26.327  12.918   0.338
 6308ION     NA59204  28.875  27.906   2.140
 6309ION     NA59205  35.292   9.373   7.121
 6310ION     NA59206  27.539  11.762   0.929
 6311ION     NA59207   5.785  27.280   0.459
 6312ION     NA59208   0.586  28.260   9.308
 6313ION     NA59209  32.608   8.852   2.751
 6314ION     NA59210  33.673  30.832   2.497
 6315ION     NA59211  17.262  12.067   2.917
 6316ION     NA59212   1.888  29.938   7.805
 6317ION     NA59213  27.227  30.433   2.626
 6318ION     NA59214  26.202  34.694  10.000
 6319ION     NA59215  15.943   2.062   7.624
 6320ION     NA59216  18.280  33.575   8.747
 6321ION     NA59217   0.034   2.752   9.124
 6322ION     NA59218  17.100  23.526   2.847
 6323ION     NA59219  32.058  16.761   9.963
 6324ION     NA59220  20.908   9.947   0.493
 6325ION     NA59221   3.416  23.340   8.470
 6326ION     NA59222  29.514  29.269   0.740
 6327ION     NA59223  19.426  32.264   9.568
 6328ION     NA59224  12.894  20.942   8.660
 6329ION     NA59225  26.044  18.827   3.110
 6330ION     NA59226  24.186  10.563   3.461
 6331ION     NA59227  26.564  12.949   2.021
 6332ION     NA59228  31.083  17.610   1.652
 6333ION     NA59229  31.122   9.063   2.378
 6334ION     NA59230  26.145  17.483  10.287
 6335ION     NA59231  17.106  21.524   2.764
 6336ION     NA59232  29.657  26.731   9.820
 6337ION     NA59233  21.963  31.715   2.697
 6338ION     NA59234   5.390  12.493   8.344
 6339ION     NA59235   0.473  10.990  10.140
 6340ION     NA59236  17.252  33.206   0.116
 6341ION     NA59237  18.194   0.525   9.014
 6342ION     NA59238   1.767  18.810   0.968
 6343ION     NA59239  10.700  29.154  10.138
 6344ION     NA59240  34.095   7.810   1.264
 6345ION     NA59241  25.740  10.346   3.218
 6346ION     NA59242   0.655  22.319   2.728
 6347ION     NA59243  34.374  18.589   2.522
 6348ION     NA59244   3.338  15.018   9.374
 6349ION     NA59245  21.226  16.948   0.301
 6350ION     NA59246  26.818  14.783  10.222
 6351ION     NA59247   9.926  17.077   3.120
 6352ION     NA59248  15.194   0.376   7.871
 6353ION     NA59249  12.313  23.307   9.738
 6354ION     NA59250  16.881   3.162   2.106
 6355ION     NA59251  31.577   6.053  10.157
 6356ION     NA59252   9.366  20.910   8.147
 6357ION     NA59253  23.601  28.174   0.359
 6358ION     NA59254   9.403  13.656  10.082
 6359ION     NA59255  13.457   1.447   2.538
 6360ION     NA59256  34.163   7.796   3.124
 6361ION     NA59257  18.252   9.684   3.213
 6362ION     NA59258  10.507  35.205   2.503
 6363ION     NA59259   4.629   1.858   7.719
 6364ION     NA59260  11.163  24.599   7.693
 6365ION     NA59261  35.517   6.021   2.435
 6366ION     NA59262  27.683   1.130   2.974
 6367ION     NA59263   0.045  15.478   9.997
 6368ION     NA59264  29.218  29.590   2.980
 6369ION     NA59265  24.255  23.398   2.971
 6370ION     NA59266  18.195   0.829  10.140
 6371ION     NA59267   9.979  31.915   2.425
 6372ION     NA59268   5.219  19.134   1.362
 6373ION     NA59269  10.047  14.170  10.012
 6374ION     NA59270  19.138  25.764   3.441
 6375ION     NA59271  33.293  26.396   2.312
 6376ION     NA59272   2.739  15.506   1.255
 6377ION     NA59273   6.871  18.553   9.108
 6378ION     NA59274   2.838  14.488   3.323
 6379ION     NA59275   3.009  23.912   3.873
 6380ION     NA59276  17.302  24.826   2.932
 6381ION     NA59277  13.086   8.254  10.127
 6382ION     NA59278  30.266  25.201   3.144
 6383ION     NA59279  35.790   9.678   1.450
 6384ION     NA59280  24.609  21.960   9.074
 6385ION     NA59281  13.727   9.992   7.498
 6386ION     NA59282  14.098  31.327   2.473
 6387ION     NA59283  10.024  10.205   2.314
 6388ION     NA59284  10.824  22.973   7.831
 6389ION     NA59285  31.814  29.955   8.656
 6390ION     NA59286  27.319  10.743   9.763
 6391ION     NA59287  16.887  27.483   9.931
 6392ION     NA59288  23.181  21.113   9.349
 6393ION     NA59289   1.037   5.222   9.983
 6394ION     NA59290  30.962  20.355   1.206
 6395ION     NA59291  28.833   5.574   1.751
 6396ION     NA59292  32.716  22.565   8.385
 6397ION     NA59293  18.043   1.940   8.354
 6398ION     NA59294   3.817  26.241   2.649
 6399ION     NA59295  12.608  23.470   0.808
 6400ION     NA59296   1.020  23.703   3.069
 6401ION     NA59297  13.375  22.687   0.183
 6402ION     NA59298  33.777   2.703   3.060
 6403ION     NA59299   3.429  15.991   2.950
 6404ION     NA59300  31.650   9.138   3.085
 6405ION     NA59301  30.480  24.896  10.127
 6406ION     NA59302   8.463  11.368   2.326
 6407ION     NA59303  12.853   9.857   1.008
 6408ION     NA59304  28.022   5.350   9.781
 6409ION     NA59305   3.292   5.389   2.986
 6410ION     NA59306  32.158  17.885   9.170
 6411ION     NA59307   9.777   2.057   9.331
 6412ION     NA59308  35.924  13.999   2.670
 6413ION     NA59309  30.460  29.272   0.034
 6414ION     NA59310  28.139  14.048   1.580
 6415ION     NA59311  35.900  19.675   9.684
 6416ION     NA59312  31.426  23.058   9.497
 6417ION     NA59313  16.864  16.305   8.412
 6418ION     NA59314  29.290  31.471   0.736
 6419ION     NA59315  21.528  19.819   2.813
 6420ION     NA59316  15.178  10.173   1.039
 6421ION     NA59317   6.962  33.568   8.884
 6422ION     NA59318  13.695  22.593   2.178
 6423ION     NA59319   7.505  26.118   1.699
 6424ION     NA59320  16.118   5.792   1.221
 6425ION     NA59321  17.022  18.545   3.676
 6426ION     NA59322   6.175   5.958   9.977
 6427ION     NA59323   7.628  21.614   0.917
 6428ION     NA59324  12.782  30.842   3.054
 6429ION     NA59325  24.464  22.796   1.095
 6430ION     NA59326  15.800  32.328   0.304
 6431ION     NA59327   8.117   8.105   7.664
 6432ION     NA59328   5.259  27.677   9.291
 6433ION     NA59329  13.433   8.872   0.299
 6434ION     NA59330   6.411   3.649   3.185
 6435ION     NA59331  25.563  18.354  10.124
 6436ION     NA59332  24.420  23.447   2.167
 6437ION     NA59333   7.373  17.373   9.221
 6438ION     NA59334   0.348  32.115   3.143
 6439ION     NA59335  24.345   9.331   3.193
 6440ION     NA59336  25.273  17.015   1.199
 6441ION     NA59337  19.740  28.850   3.039
 6442ION     NA59338  32.202  15.291   9.383
 6443ION     NA59339  23.733  21.056   2.691
 6444ION     NA59340  32.051  29.588   3.669
 6445ION     NA59341  24.846  27.312   2.223
 6446ION     NA59342  31.380   8.729   8.892
 6447ION     NA59343  23.260  19.382   3.613
 6448ION     NA59344   4.634  24.345   9.830
 6449ION     NA59345   2.056  14.807   3.555
 6450ION     NA59346  19.321   1.897   2.849
 6451ION     NA59347  28.728  14.626   7.341
 6452ION     NA59348   3.949  25.230   8.592
 6453ION     NA59349   7.842   7.083   3.467
 6454ION     NA59350  18.404   1.236   8.681
 6455ION     NA59351  20.689  20.450   2.238
 6456ION     NA59352   3.876  34.779   2.874
 6457ION     NA59353  18.046   0.255   1.538
 6458ION     NA59354   2.468  25.653   8.723
 6459ION     NA59355  10.542  33.645   8.352
 6460ION     NA59356   9.535  20.489   7.496
 6461ION     NA59357   2.567   5.732   2.332
 6462ION     NA59358  11.240  10.459   0.494
 6463ION     NA59359  30.131  24.164   1.836
 6464ION     NA59360  26.876  12.042   9.409
 6465ION     NA59361   6.820  17.823   1.547
 6466ION     NA59362  13.906  15.443   9.978
 6467ION     NA59363  35.680  12.235   3.494
 6468ION     NA59364  23.640  21.494   3.295
 6469ION     NA59365  31.631   6.793   0.269
 6470ION     NA59366  26.068   9.729   2.330
 6471ION     NA59367  17.539  24.647   9.334
 6472ION     NA59368  34.655  11.101   9.664
 6473ION     NA59369  29.270   2.072  10.215
 6474ION     NA59370  25.912  33.292   0.645
 6475ION     NA59371  22.108   6.068   0.071
 6476ION     NA59372  12.069  24.142   9.373
 6477ION     NA59373  15.202  12.978   9.402
 6478ION     NA59374  22.692  22.657   0.380
 6479ION     NA59375  22.833  19.759  10.285
 6480ION     NA59376  34.069  34.922   8.862
 6481ION     NA59377  17.717  16.512  10.027
 6482ION     NA59378  13.518  21.566   2.015
 6483ION     NA59379  17.757   2.163   0.747
 6484ION     CL59380  27.458   3.638   0.181
 6485ION     CL59381  26.894  27.950   8.153
 6486ION     CL59382  17.292   6.082   8.740
 6487ION     CL59383  15.993  19.532   9.866
 6488ION     CL59384  12.498   5.027   9.977
 6489ION     CL59385  11.262  14.623   9.372
 6490ION     CL59386  24.228  21.192   1.692
 6491ION     CL59387  24.515  30.564   1.079
 6492ION     CL59388  12.665  23.161   8.992
 6493ION     CL59389  29.835   1.295   1.418
 6494ION     CL59390  16.555  26.670   0.067
 6495ION     CL59391   3.066  22.930   0.172
 6496ION     CL59392  31.574  14.197   2.223
 6497ION     CL59393  21.154  16.562   0.164
 6498ION     CL59394   7.116  13.776   1.357
 6499ION     CL59395  21.226  12.113   1.974
 6500ION     CL59396  26.223  26.987   0.136
 6501ION     CL59397   5.536  22.968   8.446
 6502ION     CL59398  35.364   6.094   9.970
 6503ION     CL59399  23.612  24.560   9.141
 6504ION     CL59400  15.232   2.016   9.032
 6505ION     CL59401  20.171  27.886   2.609
 6506ION     CL59402  29.176  24.102   2.063
 6507ION     CL59403  19.962  30.543   9.337
 6508ION     CL59404  26.677   2.844   9.590
 6509ION     CL59405  31.517   0.287   0.730
 6510ION     CL59406  18.718   0.452   0.030
 6511ION     CL59407   3.133   5.658   0.366
 6512ION     CL59408  15.858  24.759  10.013
 6513ION     CL59409  35.777  23.477   9.864
 6514ION     CL59410   4.882  24.819   0.031
 6515ION     CL59411  13.943   1.724   2.207
 6516ION     CL59412  20.356  10.179   0.310
 6517ION     CL59413  34.656   6.283   9.557
 6518ION     CL59414  34.688  24.309   2.546
 6519ION     CL59415  16.643   2.926   2.170
 6520ION     CL59416  14.131  11.250   9.130
 6521ION     CL59417   4.313   7.048   2.811
 6522ION     CL59418  35.089   2.962   8.259
 6523ION     CL59419  30.632  30.733   9.361
 6524ION     CL59420  13.625  27.141  10.308
 6525ION     CL59421  10.692  25.249   1.541
 6526ION     CL59422   6.242  20.297   9.798
 6527ION     CL59423  15.852  28.796   9.723
 6528ION     CL59424  15.580  13.039   2.363
 6529ION     CL59425  13.534  18.842   8.984
 6530ION     CL59426  15.995  12.912  10.086
 6531ION     CL59427   1.467  25.324   2.351
 6532ION     CL59428  16.608  23.123   3.013
 6533ION     CL59429  15.548  10.072   1.276
 6534ION     CL59430  10.279  29.606   0.113
 6535ION     CL59431   4.544  30.815   8.962
 6536ION     CL59432  20.648  20.991   0.979
 6537ION     CL59433  33.028  26.426   2.035
 6538ION     CL59434  15.600  32.476   9.456
 6539ION     CL59435  10.770  33.069   8.582
 6540ION     CL59436   6.219  17.572   0.616
 6541ION     CL59437  33.444  20.832   0.724
 6542ION     CL59438  23.460  28.431   8.771
 6543ION     CL59439   0.927  14.902   9.496
 6544ION     CL59440  18.555  26.710   0.202
 6545ION     CL59441  11.601  22.113   9.745
 6546ION     CL59442  12.094  33.057   2.180
 6547ION     CL59443  16.396   3.815   9.359
 6548ION     CL59444   2.607  15.605   1.577
 6549ION     CL59445  25.939  10.350   2.673
 6550ION     CL59446  31.526   4.484   0.536
 6551ION     CL59447  30.221   6.739   2.286
 6552ION     CL59448   8.096  19.659   1.719
 6553ION     CL59449  25.359  30.177   9.345
 6554ION     CL59450   6.490   4.071   0.802
 6555ION     CL59451  34.891  20.412   9.086
 6556ION     CL59452   1.642  17.633  10.159
 6557ION     CL59453  13.926   0.258   8.856
 6558ION     CL59454   3.952  14.146   0.929
 6559ION     CL59455  27.147   2.436   9.401
 6560ION     CL59456  35.700   2.314   9.772
 6561ION     CL59457  17.933  31.498   2.564
 6562ION     CL59458  22.894  31.177   0.305
 6563ION     CL59459  13.642  11.187   7.899
 6564ION     CL59460  13.694  13.709   2.616
 6565ION     CL59461   6.565   7.295   0.810
 6566ION     CL59462  23.136  11.447  10.101
 6567ION     CL59463   9.021   1.858   1.794
 6568ION     CL59464  15.891   0.433   9.248
 6569ION     CL59465  13.615   8.171  10.236
 6570ION     CL59466  33.681  16.129   0.518
 6571ION     CL59467  13.173  34.902   8.116
 6572ION     CL59468  23.481  34.395   9.031
 6573ION     CL59469   7.032   6.978   8.609
 6574ION     CL59470  33.180   0.116   1.901
 6575ION     CL59471   3.077  34.736   2.834
 6576ION     CL59472  11.907  14.539   2.296
 6577ION     CL59473   3.960  26.586   8.709
 6578ION     CL59474   9.535   1.240   9.688
 6579ION     CL59475   3.757  34.387   8.988
 6580ION     CL59476   6.587  15.599   1.948
 6581ION     CL59477  24.156  33.663   8.570
 6582ION     CL59478  19.535  28.488   9.421
 6583ION     CL59479  19.523  13.109   1.750
 6584ION     CL59480  30.537  23.796   1.569
 6585ION     CL59481   0.049  24.630   8.662
 6586ION     CL59482  19.432   8.834   9.371
 6587ION     CL59483  33.871  22.224   9.399
 6588ION     CL59484  26.692  16.621   1.557
 6589ION     CL59485  13.422  32.036   3.141
 6590ION     CL59486   3.354  11.417   3.077
 6591ION     CL59487  16.001  17.462   2.695
 6592ION     CL59488  23.696  21.574   2.495
 6593ION     CL59489  15.140  21.873  10.021
 6594ION     CL59490  29.754  10.919   2.295
 6595ION     CL59491  16.733  32.329   8.754
 6596ION     CL59492   0.404   4.138   8.194
 6597ION     CL59493  20.282  31.098   9.707
 6598ION     CL59494   6.877  35.233   0.088
 6599ION     CL59495  34.842   5.986   1.303
 6600ION     CL59496   7.100  31.627   8.207
 6601ION     CL59497  10.002   2.450   9.501
 6602ION     CL59498   3.217  24.976   0.061
 6603ION     CL59499  26.484   6.575   8.090
 6604ION     CL59500  12.912  32.369   1.330
 6605ION     CL59501  28.162  16.628   1.887
 6606ION     CL59502  14.605   0.118   2.242
 6607ION     CL59503  25.268   7.800   9.524
 6608ION     CL59504   5.163   0.728   8.737
 6609ION     CL59505  13.572  29.236   9.188
 6610ION     CL59506  21.888   6.196  10.182
 6611ION     CL59507  33.338  13.929   2.197
 6612ION     CL59508  10.742   4.129   2.129
 6613ION     CL59509  35.781  28.606   9.326
 6614ION     CL59510  20.996  33.567   2.851
 6615ION     CL59511  28.741  32.499   7.275
 6616ION     CL59512  30.872  34.508   7.953
 6617ION     CL59513  23.154  25.437   0.110
 6618ION     CL59514  10.895  28.869  10.177
 6619ION     CL59515  28.295  26.529   0.399
 6620ION     CL59516  14.545  17.748   1.235
 6621ION     CL59517  22.301   7.248   9.105
 6622ION     CL59518  18.901  20.140   0.351
 6623ION     CL59519   5.694   8.176   1.472
 6624ION     CL59520  13.902  29.289   8.089
 6625ION     CL59521  10.071  11.118   7.910
 6626ION     CL59522  25.183  17.062   1.556
 6627ION     CL59523  14.743  10.310   2.640
 6628ION     CL59524   1.440   4.533   0.714
 6629ION     CL59525  30.578   0.363   8.049
 6630ION     CL59526   6.069  30.255   2.387
 6631ION     CL59527  29.435   4.275   3.382
 6632ION     CL59528  21.356  10.781   1.908
 6633ION     CL59529   8.502   6.390   9.032
 6634ION     CL59530   5.585  23.253   1.382
 6635ION     CL59531  25.324  12.103   0.885
 6636ION     CL59532  34.073   0.733   1.267
 6637ION     CL59533  15.249  27.854   0.628
 6638ION     CL59534  10.491  33.367   9.775
 6639ION     CL59535   6.980   9.821   0.267
 6640ION     CL59536   7.437  21.279   0.849
 6641ION     CL59537   0.979  34.498   8.994
 6642ION     CL59538  33.274  15.849   1.545
 6643ION     CL59539   7.842  32.706   0.381
 6644ION     CL59540   8.392  10.963   0.958
 6645ION     CL59541  25.875  15.146   0.225
 6646ION     CL59542  30.657  32.275  10.325
 6647ION     CL59543  13.872  20.882   9.407
 6648ION     CL59544   4.526   3.185   9.890
 6649ION     CL59545  10.949  31.559  10.181
 6650ION     CL59546  24.382  10.822   0.576
 6651ION     CL59547   6.754   5.691   0.094
 6652ION     CL59548  34.788  35.900   8.077
 6653ION     CL59549  22.457  13.373   9.500
 6654ION     CL59550  28.309  12.558   9.084
 6655ION     CL59551  18.926   1.739  10.285
 6656ION     CL59552  11.270  25.869   0.655
 6657ION     CL59553  23.662  14.841  10.148
 6658ION     CL59554  13.139  31.831   8.940
 6659ION     CL59555  27.445  12.965   0.402
 6660ION     CL59556  33.049  26.073   2.781
 6661ION     CL59557  11.369  24.335   7.789
 6662ION     CL59558  22.412  15.369   9.027
 6663ION     CL59559  23.465   0.517   2.609
 6664ION     CL59560   8.438  28.292  10.266
 6665ION     CL59561   6.883  20.745   8.660
 6666ION     CL59562   9.829  27.132   2.196
 6667ION     CL59563  35.349   0.963   7.897
 6668ION     CL59564  17.729   3.665   2.845
 6669ION     CL59565  28.187   6.583   0.167
 6670ION     CL59566  30.740  25.306   8.845
 6671ION     CL59567  13.377  29.254   8.736
 6672ION     CL59568  11.993   6.368   8.810
 6673ION     CL59569  23.601  35.363   9.284
 6674ION     CL59570  17.932  18.541   9.536
 6675ION     CL59571  28.063   2.304   9.042
 6676ION     CL59572  22.570   7.884   8.714
 6677ION     CL59573   7.726  35.043   9.031
 6678ION     CL59574   5.876  17.125   8.081
 6679ION     CL59575  13.402  32.551   9.271
 6680ION     CL59576  33.573  17.006   2.632
 6681ION     CL59577  11.215   0.950   1.831
 6682ION     CL59578  23.447  26.552   1.232
 6683ION     CL59579  15.787   7.325   8.584
 6684ION     CL59580  16.377  35.956   0.374
 6685ION     CL59581  25.073   0.309   1.284
 6686ION     CL59582  22.990  30.858   9.602
 6687ION     CL59583  12.029  32.678   1.494
 6688ION     CL59584  25.020  23.943  10.097
 6689ION     CL59585  29.357  31.469   0.011
 6690ION     CL59586  30.748  31.513   2.074
 6691ION     CL59587  30.170  24.374   2.465
 6692ION     CL59588  23.647  29.879   9.257
 6693ION     CL59589   2.863  26.033   8.483
 6694ION     CL59590  31.854  12.461   8.367
 6695ION     CL59591  34.773  11.697   8.451
 6696ION     CL59592  18.345  30.230   1.358
 6697ION     CL59593  35.000  14.272   9.567
 6698ION     CL59594   8.551   6.458   1.019
 6699ION     CL59595  12.348  15.167   9.844
 6700ION     CL59596   1.112  13.317   9.877
 6701ION     CL59597   6.100  35.065   1.052
 6702ION     CL59598  32.607  17.358   8.892
 6703ION     CL59599   3.438  28.723   9.988
 6704ION     CL59600  35.929  19.104   0.483
 6705ION     CL59601  13.224  29.924   9.968
 6706ION     CL59602  15.190  10.024   0.662
 6707ION     CL59603  10.790  29.922   1.607
 6708ION     CL59604  12.882  20.900   0.202
 6709ION     CL59605  11.245  10.278   1.200
 6710ION     CL59606  12.907  30.295   2.004
 6711ION     CL59607  18.340  11.970   9.760
 6712ION     CL59608  21.705  23.895   0.132
 6713ION     CL59609  18.790  28.450   9.973
 6714ION     CL59610  32.869  22.904   8.441
 6715ION     CL59611  29.726  27.027  10.003
 6716ION     CL59612  11.004  24.192   1.859
 6717ION     CL59613  33.916   4.671   1.957
 6718ION     CL59614  14.267  33.102   1.473
 6719ION     CL59615  14.912  20.277   8.886
 6720ION     CL59616   7.739  20.283   2.034
 6721ION     CL59617  32.736  33.729   2.650
 6722ION     CL59618  31.102  24.143   1.295
 6723ION     CL59619  20.290   7.293   8.081
 6724ION     CL59620   2.880  23.739   1.062
 6725ION     CL59621  22.254  30.315   2.567
 6726ION     CL59622  30.685   6.597   8.347
 6727ION     CL59623   1.542   5.635   1.206
 6728ION     CL59624  24.666  31.403  10.318
 6729ION     CL59625   5.058   6.829   8.726
 6730ION     CL59626  11.839   7.123   2.249
 6731ION     CL59627  18.392  32.236   2.739
 6732ION     CL59628   3.500  19.124   8.974
 6733ION     CL59629  33.683  12.798   9.481
 6734ION     CL59630  29.705  32.558  10.032
 6735ION     CL59631  26.547   1.960   1.172
 6736ION     CL59632  11.295  26.934   2.247
 6737ION     CL59633  18.374  12.238   0.014
 6738ION     CL59634  10.054  16.852   1.406
 6739ION     CL59635  17.808  11.552   0.216
 6740ION     CL59636  29.545  16.821   1.250
 6741ION     CL59637  35.970   7.059   0.229
 6742ION     CL59638   5.356  26.363   2.586
 6743ION     CL59639  24.788  14.654   8.280
 6744ION     CL59640  27.066  22.820   1.758
 6745ION     CL59641  19.353  30.789   2.101
 6746ION     CL59642  33.087   5.739   0.640
 6747ION     CL59643  30.165  17.189   9.523
 6748ION     CL59644   6.291   1.710   1.649
 6749ION     CL59645  31.561   6.315   8.188
 6750ION     CL59646   7.644   2.492   2.517
 6751ION     CL59647  31.016  10.866  10.327
 6752ION     CL59648  23.577  20.587   9.252
 6753ION     CL59649   3.325  26.050   9.687
 6754ION     CL59650  26.268  17.156   0.121
 6755ION     CL59651  26.570  12.624   2.312
 6756ION     CL59652  25.064   2.113   2.658
 6757ION     CL59653  24.508  17.198   1.999
 6758ION     CL59654  19.421  31.382   9.311
 6759ION     CL59655  20.554   5.178   8.372
 6760ION     CL59656  25.247  21.209   1.168
 6761ION     CL59657   8.836   3.963   9.864
 6762ION     CL59658  30.107  21.589   2.534
 6763ION     CL59659   0.006  23.575   3.145
 6764ION     CL59660  26.671  31.764   1.339
 6765ION     CL59661   6.119  11.397   9.929
 6766ION     CL59662  33.324   8.040   9.346
 6767ION     CL59663  22.576   5.694   9.689
 6768ION     CL59664   8.827  30.927   9.735
 6769ION     CL59665  27.242  23.487   0.001
 6770ION     CL59666   0.620  19.478   8.720
 6771ION     CL59667  20.477  29.039  10.075
 6772ION     CL59668  26.457  12.777   1.220
 6773ION     CL59669  35.433  21.435  10.191
 6774ION     CL59670  24.131  21.512   0.957
 6775ION     CL59671   2.746  23.719   8.558
 6776ION     CL59672  29.638   8.273  10.050
 6777ION     CL59673   0.554  23.253   9.533
 6778ION     CL59674  24.239  28.995   8.379
 6779ION     CL59675  33.461  18.711   8.783
 6780ION     CL59676   1.294  32.050   0.249
 6781ION     CL59677   6.224  14.248   0.246
 6782ION     CL59678   0.376   6.390   9.314
 6783ION     CL59679   7.799  13.111   0.531
 6784ION     CL59680  17.226  27.540   9.775
 6785ION     CL59681  22.216  27.203   0.447
 6786ION     CL59682   9.758  14.328   9.892
 6787ION     CL59683   8.412   1.999  10.097
 6788ION     CL59684   3.398   3.733   0.366
 6789ION     CL59685  33.189   1.823   0.615
 6790ION     CL59686  22.179  34.440   2.160
 6791ION     CL59687   3.632  28.641   8.484
 6792ION     CL59688  24.454  20.034   2.765
 6793ION     CL59689   4.289   7.306   8.715
 6794ION     CL59690  33.232  29.223   0.502
 6795ION     CL59691   2.608  22.259   0.184
 6796ION     CL59692   5.408  27.742   0.066
 6797ION     CL59693  12.287   0.293   8.059
 6798ION     CL59694  35.620  29.196   1.923
 6799ION     CL59695  25.070  29.760  10.151
 6800ION     CL59696   5.627   0.376   1.881
 6801ION     CL59697  10.089  10.605   9.752
 6802ION     CL59698   5.383  34.680   9.542
 6803ION     CL59699   3.412  14.950   0.098
 6804ION     CL59700  11.609  21.018   9.710
 6805ION     CL59701  19.438   0.367   2.939
 6806ION     CL59702  35.437   2.884   1.903
 6807ION     CL59703  13.179  24.605   8.434
 6808ION     CL59704  22.721  35.479   8.557
 6809ION     CL59705   1.857   1.085   8.558
 6810ION     CL59706  26.189   8.940   0.646
 6811ION     CL59707  26.788  34.166   8.607
 6812ION     CL59708  32.025   8.521   1.354
 6813ION     CL59709  16.668  22.112   0.110
 6814ION     CL59710  18.664  24.929   1.960
 6815ION     CL59711  34.616  19.354   2.816
 6816ION     CL59712   0.652  31.248   3.772
 6817ION     CL59713  26.345  14.515   0.201
 6818ION     CL59714   7.122  14.871   0.333
 6819ION     CL59715   1.482  11.641   8.739
 6820ION     CL59716  27.500   1.613   8.662
 6821ION     CL59717   8.804  29.113   9.149
 6822ION     CL59718  18.445   9.053   9.824
 6823ION     CL59719  24.333  19.401   9.744
 6824ION     CL59720  27.280   6.268   9.494
 6825ION     CL59721  15.465  34.383   9.353
 6826ION     CL59722  33.901  26.056   8.177
 6827ION     CL59723   6.717  26.684   9.712
 6828ION     CL59724   9.107  21.133   2.305
 6829ION     CL59725  13.761  25.622   8.757
 6830ION     CL59726   9.362  22.087   0.455
 6831ION     CL59727  21.411  23.906   0.931
 6832ION     CL59728   5.093   1.893   8.758
 6833ION     CL59729   8.011   4.026   0.623
 6834ION     CL59730   1.854  27.348   2.329
 6835ION     CL59731  34.337  20.597   1.980
 6836ION     CL59732  16.521  34.513   1.016
 6837ION     CL59733  30.573   4.100   0.689
 6838ION     CL59734   7.792  25.472   8.025
 6839ION     CL59735   4.906  34.957   1.982
 6840ION     CL59736  29.146  26.080  10.016
 6841ION     CL59737   5.273  17.338   9.459
 6842ION     CL59738  19.389   8.266   1.732
 6843ION     CL59739   2.499  11.677   2.552
 6844ION     CL59740  26.343  11.452   2.807
 6845ION     CL59741   2.272  28.191   7.821
 6846ION     CL59742   4.136  25.465   2.147
 6847ION     CL59743  14.222  26.067   9.390
 6848ION     CL59744  34.121  20.746   0.636
 6849ION     CL59745  34.436  16.720   8.669
 6850ION     CL59746  25.307   3.815   2.183
 6851ION     CL59747  22.611  35.851   2.515
 6852ION     CL59748  31.111   6.927   1.354
 6853ION     CL59749  33.587  32.708   9.462
 6854ION     CL59750   3.185  10.863   1.935
 6855ION     CL59751   7.243  33.739   1.065
 6856ION     CL59752  31.409   5.914   9.802
 6857ION     CL59753  31.363  28.407   1.797
 6858ION     CL59754   8.428   3.452   1.360
 6859ION     CL59755  12.233  27.607   1.028
 6860ION     CL59756  18.977  14.078   8.810
 6861ION     CL59757  18.282  19.093   2.949
 6862ION     CL59758  17.274   3.467   1.262
 6863ION     CL59759  16.101   3.226   8.000
 6864ION     CL59760  17.285  33.383   8.433
 6865ION     CL59761   6.206   3.562   9.851
 6866ION     CL59762  23.790   9.381   8.354
 6867ION     CL59763   7.967  29.267  10.196
 6868ION     CL59764  25.490  17.842   9.677
 6869ION     CL59765  34.662  13.886   2.912
 6870ION     CL59766  16.856  20.958  10.083
 6871ION     CL59767  19.767  11.746   8.619
 6872ION     CL59768  31.201  20.120   1.016
 6873ION     CL59769  16.821  17.366   1.089
 6874ION     CL59770   0.855   4.108   1.153
 6875ION     CL59771  15.932  31.830   1.868
 6876ION     CL59772  28.741   3.905   9.378
 6877ION     CL59773   4.493  32.197   1.855
 6878ION     CL59774  20.452  24.251   9.573
 6879ION     CL59775  35.522   4.311   1.619
 6880ION     CL59776   1.647  15.285   3.006
 6881ION     CL59777  13.228  20.731   8.782
 6882ION     CL59778   9.881  23.563   0.551
 6883ION     CL59779  28.567  15.515   0.789
 6884ION     CL59780  25.356  18.576   0.152
 6885ION     CL59781  26.778  17.091   0.861
 6886ION     CL59782   7.734  17.248   2.585
 6887ION     CL59783  15.983  22.357   8.549
 6888ION     CL59784  23.190  13.003   8.212
 6889ION     CL59785  12.234  14.622   0.068
 6890ION     CL59786  13.198  24.216  10.151
 6891ION     CL59787  25.987  32.109   0.459
 6892ION     CL59788  15.105  25.527   8.801
 6893ION     CL59789   7.104  34.632   1.167
 6894ION     CL59790   8.505  10.760   8.758
 6895ION     CL59791  34.999  13.410   2.296
 6896ION     CL59792   3.692   5.260   0.366
 6897ION     CL59793  25.600  26.298   8.915
 6898ION     CL59794  23.056  11.270   0.455
 6899ION     CL59795   6.713  26.541   1.706
 6900ION     CL59796  19.604  31.531   8.450
 6901ION     CL59797  30.239  24.565   8.604
 6902ION     CL59798  31.985   9.165  10.092
 6903ION     CL59799   7.800  18.022   9.218
 6904ION     CL59800   1.939   0.654   0.196
 6905ION     CL59801  18.725  12.391   8.480
 6906ION     CL59802  11.543  19.866   1.940
 6907ION     CL59803  17.817  34.672   0.667
 6908ION     CL59804  18.472  13.162   9.634
 6909ION     CL59805   5.825  18.003   9.334
 6910ION     CL59806   9.881   7.464   1.329
 6911ION     CL59807  26.991   0.837   0.656
 6912ION     CL59808  16.111   8.259   8.919
 6913ION     CL59809  24.360   6.272   0.908
 6914ION     CL59810  16.119  35.134   0.865
 6915ION     CL59811  26.660  10.956   9.951
 6916ION     CL59812  21.629  17.911   1.290
 6917ION     CL59813  12.982  14.568   0.692
 6918ION     CL59814   2.857  32.780   1.897
 6919ION     CL59815  25.082  26.987   2.288
 6920ION     CL59816  29.606   8.576   7.960
 6921ION     CL59817  23.555  22.187   8.935
 6922ION     CL59818   3.815  26.727   0.367
 6923ION     CL59819   7.659  27.555   9.214
 6924ION     CL59820  15.704  20.886   9.018
 6925ION     CL59821   8.411  32.059   2.827
 6926ION     CL59822  17.585  25.259   2.024
 6927ION     CL59823   6.392  24.914   1.234
 6928ION     CL59824  31.342  11.255   8.781
 6929ION     CL59825   9.798   5.221   8.760
 6930ION     CL59826  12.025   5.480   1.765
 6931ION     CL59827  18.495   1.871   2.457
 6932ION     CL59828  10.984  35.353   8.919
 6933ION     CL59829  31.395  11.889  10.246
 6934ION     CL59830  17.642  11.471   2.790
 6935ION     CL59831   0.829  15.463  10.153
 6936ION     CL59832   8.982   8.034   8.523
 6937ION     CL59833  34.983  10.903   8.551
 6938ION     CL59834  34.234  29.582   1.007
 6939ION     CL59835   0.207   8.387   1.702
 6940ION     CL59836  35.296  10.314   7.671
 6941ION     CL59837   6.582   3.288   7.901
 6942ION     CL59838  34.107  24.331   9.208
 6943ION     CL59839   6.328  25.145   9.074
 6944ION     CL59840   0.401  10.650   8.375
 6945ION     CL59841  32.229  20.189   2.890
 6946ION     CL59842  20.774  18.843   0.132
 6947ION     CL59843  23.283  18.619   2.305
 6948ION     CL59844  30.178  27.833   9.411
 6949ION     CL59845  32.149   3.960   2.004
 6950ION     CL59846  26.981  11.364   1.176
 6951ION     CL59847  13.635  29.219   9.925
 6952ION     CL59848  33.476  17.869  10.031
 6953ION     CL59849   8.560   1.888   7.187
 6954ION     CL59850  19.373  27.963   8.506
 6955ION     CL59851   1.279  16.039   0.604
 6956ION     CL59852  15.973  24.326   2.648
 6957ION     CL59853  11.832  12.857   2.890
 6958ION     CL59854  13.177   1.953   2.280
 6959ION     CL59855   6.060   6.399   1.186
 6960ION     CL59856  20.347  18.425   2.026
 6961ION     CL59857   8.212  23.076   8.094
 6962ION     CL59858  35.760  33.860   8.166
 6963ION     CL59859  31.597   7.718   8.650
 6964ION     CL59860   3.599  35.202   8.998
 6965ION     CL59861   9.082  10.208   0.348
 6966ION     CL59862  20.068  26.264   2.198
 6967ION     CL59863  16.775   2.232  10.044
 6968ION     CL59864  31.735  34.146  10.125
 6969ION     CL59865   8.838  15.368   8.647
 6970ION     CL59866  11.401  32.173   1.391
 6971ION     CL59867  24.856   9.219   0.539
 6972ION     CL59868  20.150   4.221   2.792
 6973ION     CL59869   3.483  15.178   1.171
 6974ION     CL59870  34.464   7.274   9.405
 6975ION     CL59871  10.715  19.086   1.312
 6976ION     CL59872  15.863  15.519   8.483
 6977ION     CL59873  22.865   5.352   2.076
 6978ION     CL59874  25.612  26.362   1.071
 6979ION     CL59875   5.926  26.784   1.001
 6980ION     CL59876  22.888  10.577   2.705
 6981ION     CL59877  22.848  13.695   1.411
 6982ION     CL59878  20.999  33.068   1.467
 6983ION     CL59879  14.956  24.114   1.818
 6984ION     CL59880  20.857  18.750   0.706
 6985ION     CL59881  24.534  22.682   0.664
 6986ION     CL59882  26.506   0.539   9.942
 6987ION     CL59883   4.027  26.382  10.056
 6988ION     CL59884   0.187   9.270   1.031
 6989ION     CL59885   8.374   7.941   8.078
 6990ION     CL59886  34.171  14.234   9.600
 6991ION     CL59887  23.741  12.817   2.209
 6992ION     CL59888  21.574   0.606   8.746
 6993ION     CL59889   4.779   1.884   1.572
 6994ION     CL59890  12.644  31.359   0.930
 6995ION     CL59891  21.141   4.034   8.569
 6996ION     CL59892  18.313   0.393   8.707
 6997ION     CL59893  12.016   0.738   8.797
 6998ION     CL59894  11.789   2.761   2.111
 6999ION     CL59895  30.673  17.857   1.822
 7000ION     CL59896  18.326  33.847   2.207
 7001ION     CL59897  17.182  25.145   1.075
 7002ION     CL59898   4.924  33.561   1.803
 7003ION     CL59899  12.750  31.357   2.931
 7004ION     CL59900   3.032  25.442   9.152
 7005ION     CL59901  25.548   2.559   2.652
 7006ION     CL59902  33.323  10.427   0.894
 7007ION     CL59903  11.021  20.601   0.870
 7008ION     CL59904  12.736  23.558   1.905
 7009ION     CL59905  25.684  15.163   2.362
 7010ION     CL59906  17.488   4.327   0.238
 7011ION     CL59907  13.567  31.095   2.108
 7012ION     CL59908  15.724  16.938   9.304
 7013ION     CL59909  23.109   1.553   0.562
 7014ION     CL59910  31.199   1.182   2.721
 7015ION     CL59911   5.392  24.150   8.616
 7016ION     CL59912  12.370  34.383   1.009
 7017ION     CL59913  13.383  20.300   9.592
 7018ION     CL59914   3.127  15.170   9.130
 7019ION     CL59915   3.188   6.098   1.252
 7020ION     CL59916  34.419   1.051  10.180
 7021ION     CL59917  31.570   4.245   2.377
 7022ION     CL59918  29.416  19.996   1.840
 7023ION     CL59919  15.430  10.748   0.560
 7024ION     CL59920  12.119  27.491   8.571
 7025ION     CL59921   7.648  11.225   8.255
 7026ION     CL59922   6.447  34.583   0.927
 7027ION     CL59923   5.581  18.915   8.173
 7028ION     CL59924  27.803   4.899   0.287
 7029ION     CL59925   8.738  35.370   7.848
 7030ION     CL59926  16.541   6.390   1.957
 7031ION     CL59927  26.131   4.068   2.541
 7032ION     CL59928  25.993   2.940   1.428
 7033ION     CL59929  17.101  27.271   0.263
 7034ION     CL59930  35.289  30.857   3.172
 7035ION     CL59931  33.496  24.752   9.563
 7036ION     CL59932  28.022   5.532   2.818
 7037ION     CL59933  13.853   6.040   8.213
 7038ION     CL59934  17.229  33.725   1.703
 7039ION     CL59935   3.965   6.842   8.353
 7040ION     CL59936  27.056  16.137   2.365
 7041ION     CL59937  30.786  31.441   0.144
 7042ION     CL59938  27.260  33.254   1.230
 7043ION     CL59939  35.202  29.938   9.700
 7044ION     CL59940   5.861   8.837   2.617
 7045ION     CL59941  32.235  12.030   0.218
 7046ION     CL59942  29.545  25.445   0.715
 7047ION     CL59943   4.126   6.769   1.180
 7048ION     CL59944  24.620   5.008   1.765
 7049ION     CL59945  30.557  13.477   2.230
 7050ION     CL59946  33.897   7.450   0.001
 7051ION     CL59947  27.718  20.399   9.439
 7052ION     CL59948   8.171  30.204   7.968
 7053ION     CL59949  29.144  17.941   1.809
 7054ION     CL59950  18.617   6.548   0.402
 7055ION     CL59951  20.789  20.714   2.498
 7056ION     CL59952   2.004   4.997   7.766
 7057ION     CL59953   6.723  10.079   1.469
 7058ION     CL59954  18.959  14.251   2.168
 7059ION     CL59955   7.768  11.949   9.240
 7060ION     CL59956  11.947   4.478   0.869
 7061ION     CL59957  33.307  17.141   9.151
 7062ION     CL59958  25.728  16.562   8.413
 7063ION     CL59959  17.997  23.910   8.449
 7064ION     CL59960   2.913  24.538   1.449
 7065ION     CL59961  30.529  32.898   9.165
 7066ION     CL59962   1.520  17.148   0.954
 7067ION     CL59963  17.574  20.560   1.302
 7068ION     CL59964  25.159  31.576   8.500
 7069ION     CL59965  32.745  32.162   3.145
 7070ION     CL59966  13.513  35.860   9.960
 7071ION     CL59967  23.990   5.066   2.226
 7072ION     CL59968   7.217   3.795   0.412
 7073ION     CL59969  21.210   6.696   2.865
 7074ION     CL59970  34.140  25.836   9.877
 7075ION     CL59971   5.117  10.968   9.764
 7076ION     CL59972  13.238  19.505   9.825
 7077ION     CL59973  18.587  30.744   8.259
 7078ION     CL59974  12.541  21.065   8.226
 7079ION     CL59975  20.412  12.225   1.745
 7080ION     CL59976  28.408  30.908   1.289
 7081ION     CL59977  35.079  10.116   2.027
 7082ION     CL59978  11.444  12.314   9.370
 7083ION     CL59979   4.299  25.524   9.425
 7084ION     CL59980  34.879  24.764   1.704
 7085ION     CL59981  29.172  26.349   1.314
 7086ION     CL59982  16.744  10.238   9.802
 7087ION     CL59983   7.024  18.499   8.440
 7088ION     CL59984  30.273   3.270   2.284
 7089ION     CL59985  14.201  10.345   0.975
 7090ION     CL59986  23.996  35.414   0.807
 7091ION     CL59987  30.810   0.519   8.776
 7092ION     CL59988  11.808  11.010   8.393
 7093ION     CL59989  26.653  29.322   7.868
 7094ION     CL59990  26.883  32.156   0.038
 7095ION     CL59991  13.462  25.496   2.102
 7096ION     CL59992  17.664  16.631   2.422
 7097ION     CL59993  32.169  30.023   8.680
 7098ION     CL59994  28.960  14.898   2.822
 7099ION     CL59995  30.148  29.860  10.303
 7100ION     CL59996  32.458  10.854   8.846
 7101ION     CL59997  14.630  15.655  10.079
 7102ION     CL59998  21.428  24.815   1.854
 7103ION     CL59999  16.776   4.420   8.502
 7104ION     CL60000   3.856   9.429   1.100
 7105ION     CL60001   6.785  17.669   1.835
 7106ION     CL60002  31.945  12.497   2.450
 7107ION     CL60003  31.632  26.254   0.646
 7108ION     CL60004  25.262  33.602   8.533
 7109ION     CL60005  34.382  21.298   8.802
 7110ION     CL60006   8.090  21.055   0.516
 7111ION     CL60007  15.424  19.251   9.073
 7112ION     CL60008  24.659   8.001   2.570
 7113ION     CL60009  24.755   8.128   9.062
 7114ION     CL60010   7.377  11.986   2.492
 7115ION     CL60011  12.451   0.070   2.233
 7116ION     CL60012  14.784  21.320   1.518
 7117ION     CL60013   7.568  26.602   7.914
 7118ION     CL60014  16.963  16.622   8.277
 7119ION     CL60015   4.556  33.162   0.804
 7120ION     CL60016  25.536   9.344   2.957
 7121ION     CL60017  26.958   3.796   0.911
 7122ION     CL60018   0.555  22.758   0.269
 7123ION     CL60019   7.130  17.416   8.585
 7124ION     CL60020  12.849   4.529   9.392
 7125ION     CL60021   0.115  13.588   2.895
 7126ION     CL60022  23.177   8.414   1.203
 7127ION     CL60023  27.788  22.762  10.323
 7128ION     CL60024  17.583   8.712   2.091
 7129ION     CL60025   6.752  10.998   1.674
 7130ION     CL60026   1.778   9.282   8.361
 7131ION     CL60027   6.750   4.380   8.327
 7132ION     CL60028  23.828   0.752   1.259
 7133ION     CL60029  11.101  15.750   9.357
 7134ION     CL60030   2.433  31.721   1.072
 7135ION     CL60031   0.735  10.322   2.077
 7136ION     CL60032  14.802  25.249   2.566
 7137ION     CL60033  31.153  20.686   2.671
 7138ION     CL60034  15.241   3.422   1.933
 7139ION     CL60035   7.012  17.340   9.209
 7140ION     CL60036  21.591  25.570  10.168
 7141ION     CL60037  35.658  19.551   9.855
 7142ION     CL60038  32.424  12.234   8.454
 7143ION     CL60039  22.849  20.429   1.634
 7144ION     CL60040  18.038  13.670   1.546
 7145ION     CL60041  11.943  26.430   1.888
 7146ION     CL60042   9.552  15.487   0.813
 7147ION     CL60043  34.125   8.900   0.322
 7148ION     CL60044  18.507  21.410   2.502
 7149ION     CL60045   3.826  31.505   0.537
 7150ION     CL60046  32.395  28.572   2.233
 7151ION     CL60047  16.049  11.312   0.723
 7152ION     CL60048  26.358   8.756  10.129
 7153ION     CL60049   2.255  27.854   1.852
 7154ION     CL60050   5.316  20.803   9.466
 7155ION     CL60051   6.478  32.235  10.075
 7156ION     CL60052  10.167   0.409   9.256
 7157ION     CL60053   8.473  18.412  10.113
 7158ION     CL60054  23.223   9.887   0.326
 7159ION     CL60055  17.538   9.613   0.660
 7160ION     CL60056  16.368  28.689   8.853
 7161ION     CL60057  10.391  30.951   1.860
 7162ION     CL60058  24.914   1.705   8.650
 7163ION     CL60059  18.457  10.968   9.816
 7164ION     CL60060  31.955  28.867   1.601
 7165ION     CL60061  22.868   4.154   8.388
 7166ION     CL60062  25.794   2.505   8.870
 7167ION     CL60063  22.953   0.135   8.175
 7168ION     CL60064   0.628  21.852   2.702
 7169ION     CL60065  10.473  27.707   7.493
 7170ION     CL60066   8.201   7.354   8.642
 7171ION     CL60067   5.591  17.202   3.246
 7172ION     CL60068  25.639  18.444   2.692
 7173ION     CL60069  18.779  20.831   2.499
 7174ION     CL60070  17.948  34.470   2.760
 7175ION     CL60071   1.125  14.239   1.812
 7176ION     CL60072   0.573  21.947  10.186
 7177ION     CL60073  20.245   1.093   2.138
 7178ION     CL60074   1.126  23.060  10.306
 7179ION     CL60075  17.742   1.698   0.062
 7180ION     CL60076  10.002  21.033   9.494
 7181ION     CL60077   4.882  26.989   1.735
 7182ION     CL60078   1.952  24.118   2.433
 7183ION     CL60079  27.296   4.871   2.616
 7184ION     CL60080   0.790   6.486   0.468
 7185ION     CL60081  26.675   1.372   2.447
 7186ION     CL60082  26.475  24.910  10.229
 7187ION     CL60083   1.755  11.692   0.825
 7188ION     CL60084   5.093  18.815   1.235
 7189ION     CL60085  26.268   3.297   0.339
 7190ION     CL60086  30.026   0.762   9.441
 7191ION     CL60087  25.110  24.917   8.842
 7192ION     CL60088   8.228  19.373  10.179
 7193ION     CL60089  15.246  21.884   2.268
 7194ION     CL60090  10.196  32.423   9.851
 7195ION     CL60091  23.248  27.901   8.286
 7196ION     CL60092  25.807  15.863   1.318
 7197ION     CL60093  11.848  10.226   2.433
 7198ION     CL60094  13.410  31.322   1.083
 7199ION     CL60095  25.683  18.113   8.989
 7200ION     CL60096  20.783  33.676   0.876
 7201ION     CL60097  22.487  33.576   1.000
 7202ION     CL60098  30.749  34.767   1.763
 7203ION     CL60099  31.206  22.758   8.994
 7204ION     CL60100  24.063  34.248  10.118
 7205ION     CL60101   9.364  22.569   1.908
 7206ION     CL60102  31.515  22.987   0.089
 7207ION     CL60103  21.086   4.883   9.085
 7208ION     CL60104  34.686  30.238   1.747
 7209ION     CL60105   8.230  34.458   0.146
 7210ION     CL60106  23.658  27.602   9.987
 7211ION     CL60107  11.468  20.022   8.024
 7212ION     CL60108  15.901   7.007   0.829
 7213ION     CL60109  22.352  22.606   0.349
 7214ION     CL60110  14.508  25.908   8.572
 7215ION     CL60111   5.828  28.293   8.182
 7216ION     CL60112  28.178  15.318   0.083
 7217ION     CL60113  19.602   8.650   2.810
 7218ION     CL60114  27.630   3.690   3.047
 7219ION     CL60115  11.540  28.343   0.978
 7220ION     CL60116   6.071   9.495   1.777
 7221ION     CL60117  13.468   1.954   1.142
 7222ION     CL60118   5.426   4.179   1.106
 7223ION     CL60119  31.193  32.222   0.520
 7224ION     CL60120  27.850  21.460   2.438
 7225ION     CL60121   0.769  27.613   2.024
 7226ION     CL60122   2.140   4.012   1.107
 7227ION     CL60123  24.910   7.200   0.466
 7228ION     CL60124  35.963  11.444   2.210
 7229ION     CL60125  30.719  17.537   8.921
 7230ION     CL60126   7.492   4.940   9.679
 7231ION     CL60127   7.949  18.739   9.589
 7232ION     CL60128  22.468  22.606   1.954
 7233W        W60129  10.493  23.961   8.179
 7234W        W60130  15.943  18.727   8.102
 7235W        W60131  25.319   5.153   9.024
 7236W        W60132  11.221   4.297   3.295
 7237W        W60133   2.391   9.616   7.653
 7238W        W60134  34.571  29.638   1.316
 7239W        W60135  31.129   0.655   3.592
 7240W        W60136  17.559  11.353   0.525
 7241W        W60137  14.937  20.205   0.383
 7242W        W60138  11.440  22.352   7.794
 7243W        W60139  19.153  20.037  10.313
 7244W        W60140  14.827  12.395   0.477
 7245W        W60141  24.471  18.149   9.505
 7246W        W60142  15.105   9.448   9.607
 7247W        W60143   1.653   1.881   7.645
 7248W        W60144  27.527   0.200   2.958
 7249W        W60145   9.138   3.260   9.233
 7250W        W60146  20.738  23.802   2.315
 7251W        W60147  18.116   5.698   9.527
 7252W        W60148  28.810  12.487   8.715
 7253W        W60149  12.226  28.712   8.444
 7254W        W60150  31.632  29.749   1.311
 7255W        W60151  21.526  10.259  10.165
 7256W        W60152   1.555   0.435   0.890
 7257W        W60153   4.838   2.298   9.650
 7258W        W60154   7.899  13.413   0.834
 7259W        W60155   4.108   2.917   8.111
 7260W        W60156   4.128  31.239   1.847
 7261W        W60157   4.908   1.376   2.665
 7262W        W60158  34.863   2.205   0.295
 7263W        W60159   5.429   3.967   8.059
 7264W        W60160  24.431  34.029  10.264
 7265W        W60161  18.696  34.997   9.347
 7266W        W60162   7.119  10.307   3.303
 7267W        W60163  14.104  35.422  10.023
 7268W        W60164  10.773  14.348   8.846
 7269W        W60165  27.445   1.592   9.177
 7270W        W60166  21.132   0.553   1.142
 7271W        W60167  21.275   0.129   0.890
 7272W        W60168  11.799  35.856   9.116
 7273W        W60169  12.171  15.090   8.261
 7274W        W60170  17.153  23.677   8.326
 7275W        W60171  26.912   2.720   8.175
 7276W        W60172  10.624   4.102   2.564
 7277W        W60173  24.519  26.200   2.353
 7278W        W60174  21.060  25.982   2.684
 7279W        W60175  35.171  20.739   8.366
 7280W        W60176   1.808  33.426   8.122
 7281W        W60177  11.066  16.241   2.076
 7282W        W60178  27.330   0.416   9.143
 7283W        W60179  22.998   1.702  10.209
 7284W        W60180  30.087   3.566   1.951
 7285W        W60181  23.113  14.035   9.617
 7286W        W60182  23.590  26.606  10.037
 7287W        W60183  30.064  34.612   9.814
 7288W        W60184  20.642   8.594   1.058
 7289W        W60185  25.250   5.985   0.479
 7290W        W60186  19.560  25.030   9.259
 7291W        W60187  10.605  13.423   1.713
 7292W        W60188   9.252  33.939   9.876
 7293W        W60189   9.793  10.612   8.435
 7294W        W60190   3.617   4.876   2.480
 7295W        W60191  21.718  24.542   9.589
 7296W        W60192  32.035  16.611   2.052
 7297W        W60193   2.686  31.747   1.651
 7298W        W60194   5.844   9.668   3.269
 7299W        W60195  26.642   5.377   1.926
 7300W        W60196  22.750  24.602   2.920
 7301W        W60197  22.732  26.867   0.249
 7302W        W60198  20.569  26.736   3.778
 7303W        W60199  14.199  27.880   7.781
 7304W        W60200   6.979  12.234   0.490
 7305W        W60201  24.128  11.231   3.186
 7306W        W60202  27.275  31.009   8.748
 7307W        W60203  19.763  22.562   0.940
 7308W        W60204   2.063  25.308   1.342
 7309W        W60205  29.988   2.842   0.999
 7310W        W60206  26.763  25.864   7.851
 7311W        W60207  11.478  15.172   0.767
 7312W        W60208  10.810  14.973   9.740
 7313W        W60209  28.667   9.047   9.955
 7314W        W60210  30.959  12.176   1.839
 7315W        W60211   5.715   5.070   1.645
 7316W        W60212   0.101  34.374  10.023
 7317W        W60213  22.593   7.321   2.070
 7318W        W60214   6.609   6.691   8.732
 7319W        W60215   8.759  29.715   2.306
 7320W        W60216  14.131  10.295   9.592
 7321W        W60217   7.676  15.095   1.713
 7322W        W60218  27.298  34.825   2.954
 7323W        W60219  20.482   9.377   2.263
 7324W        W60220  10.011  28.878   9.825
 7325W        W60221  10.888  29.278   2.334
 7326W        W60222   9.266   2.066   2.504
 7327W        W60223   3.454  24.295   0.832
 7328W        W60224   2.063  32.383   9.833
 7329W        W60225  32.423  21.093   9.059
 7330W        W60226   4.048  17.186   7.602
 7331W        W60227  30.644  12.645   0.760
 7332W        W60228  23.893   1.239   2.009
 7333W        W60229  15.778   5.903   2.361
 7334W        W60230   0.266  22.713  10.259
 7335W        W60231  29.498   5.148   7.791
 7336W        W60232  29.397   4.681   1.716
 7337W        W60233   0.669  22.847   9.491
 7338W        W60234  26.663  14.971   9.318
 7339W        W60235   4.877   2.772   8.427
 7340W        W60236  35.339  30.227   2.776
 7341W        W60237  18.026  33.857   8.074
 7342W        W60238   6.146   5.784   1.242
 7343W        W60239   1.191   0.603   9.106
 7344W        W60240  20.748  30.184   3.457
 7345W        W60241  22.489   0.260   8.284
 7346W        W60242  18.522   3.415   8.560
 7347W        W60243  31.449   2.585   9.010
 7348W        W60244  33.364  14.083   9.294
 7349W        W60245   3.426   6.565   2.191
 7350W        W60246  33.684  19.780  10.273
 7351W        W60247   5.682  19.748   2.703
 7352W        W60248  28.437  25.853  10.127
 7353W        W60249   8.124  33.619   1.152
 7354W        W60250   8.881  31.284  10.064
 7355W        W60251  18.177  28.400   8.807
 7356W        W60252   6.257   9.227   0.037
 7357W        W60253  21.599   5.402  10.244
 7358W        W60254  13.637  10.790   9.196
 7359W        W60255  28.746  26.473   1.305
 7360W        W60256  23.666  12.031   3.484
 7361W        W60257  27.779   1.303   2.583
 7362W        W60258   0.496   5.013   1.484
 7363W        W60259  27.945  12.947   8.578
 7364W        W60260  28.633  16.373   8.668
 7365W        W60261  28.262  27.344   1.376
 7366W        W60262   9.470  13.303   8.748
 7367W        W60263  11.352  24.465   8.424
 7368W        W60264  32.236   4.759   9.609
 7369W        W60265  12.294  11.766   3.252
 7370W        W60266   3.648  30.066   3.734
 7371W        W60267  29.964  22.571   8.915
 7372W        W60268   5.684  16.338   3.692
 7373W        W60269  34.413  27.998   0.229
 7374W        W60270  12.315   9.163   9.672
 7375W        W60271  27.684   9.614   1.011
 7376W        W60272  24.753  18.502   0.052
 7377W        W60273  30.663   0.273   2.459
 7378W        W60274  21.950   2.504   7.239
 7379W        W60275  22.899  20.306   7.818
 7380W        W60276   0.552  33.301   3.203
 7381W        W60277  22.798   1.830   0.348
 7382W        W60278  29.852  20.661   1.958
 7383W        W60279   8.838   8.549   2.206
 7384W        W60280  14.297  12.265   1.681
 7385W        W60281  31.269   9.971   7.706
 7386W        W60282  27.958   7.681   8.407
 7387W        W60283  20.552  15.982   1.095
 7388W        W60284  20.645  32.626   3.138
 7389W        W60285  10.848  16.855  10.021
 7390W        W60286   4.908  30.821   2.971
 7391W        W60287  14.008  13.310   7.910
 7392W        W60288  10.369  15.958   8.473
 7393W        W60289  11.342  30.564   1.545
 7394W        W60290  14.920   9.099   0.759
 7395W        W60291  10.847  27.709   1.485
 7396W        W60292   8.775   9.165  10.007
 7397W        W60293  35.479   8.113   8.228
 7398W        W60294   3.680  10.984   8.828
 7399W        W60295  21.593   1.040   7.708
 7400W        W60296  11.431   9.055   9.967
 7401W        W60297  20.947   6.699  10.092
 7402W        W60298   8.042  28.524  10.196
 7403W        W60299  10.389  21.296   0.615
 7404W        W60300   8.099   4.256   7.003
 7405W        W60301  25.415  31.475   1.474
 7406W        W60302   1.483   3.223   9.044
 7407W        W60303   8.828  28.411   0.084
 7408W        W60304  35.781  16.828   9.366
 7409W        W60305  33.764  18.093   9.507
 7410W        W60306  11.163  29.743   8.597
 7411W        W60307   4.191  14.200   9.635
 7412W        W60308  19.685  28.885   9.580
 7413W        W60309  16.919  19.996   0.089
 7414W        W60310  34.176  10.049   7.902
 7415W        W60311  28.301   3.551   1.859
 7416W        W60312  10.873  24.764   8.150
 7417W        W60313  28.441  31.462   2.392
 7418W        W60314  12.904  27.987   9.618
 7419W        W60315  34.497  16.461   9.784
 7420W        W60316   2.681   6.278  10.076
 7421W        W60317   0.618  11.938   1.203
 7422W        W60318  26.762  24.722   7.982
 7423W        W60319  11.917  22.458   9.029
 7424W        W60320  20.551  29.121   7.343
 7425W        W60321  11.166  20.332   3.044
 7426W        W60322  24.450  24.697   1.727
 7427W        W60323  11.562   7.787   2.121
 7428W        W60324  15.888  13.109   0.827
 7429W        W60325   4.798   3.723   2.135
 7430W        W60326  32.586  14.090   1.074
 7431W        W60327  25.191  12.226   0.485
 7432W        W60328  33.964  30.997   9.821
 7433W        W60329  18.346   9.130   0.768
 7434W        W60330  23.094  21.963   2.087
 7435W        W60331  32.570  18.835   1.594
 7436W        W60332  26.534   5.214   1.299
 7437W        W60333  12.029  16.214  10.201
 7438W        W60334  31.649  22.320   2.585
 7439W        W60335   2.804  10.368   3.472
 7440W        W60336  16.810  33.004   2.662
 7441W        W60337  25.473   9.077   9.911
 7442W        W60338  12.951   8.074   7.658
 7443W        W60339  26.847   9.296   3.792
 7444W        W60340   9.901  10.624   2.458
 7445W        W60341  20.086  26.261   9.061
 7446W        W60342   9.499  32.611  10.192
 7447W        W60343  30.447  32.013   2.595
 7448W        W60344  17.365  18.010   3.276
 7449W        W60345   6.514  16.512   7.850
 7450W        W60346   4.235   1.183   2.545
 7451W        W60347   8.287   1.690   8.373
 7452W        W60348  16.913  28.748   3.588
 7453W        W60349  20.096  31.965  10.069
 7454W        W60350  22.985  25.757   8.041
 7455W        W60351   1.589   4.134   0.672
 7456W        W60352  31.057   0.529   8.137
 7457W        W60353  15.673   8.700   7.861
 7458W        W60354  21.001   9.149   2.238
 7459W        W60355  23.952   0.789   7.424
 7460W        W60356  35.122  12.753   0.459
 7461W        W60357  14.795  13.270   9.411
 7462W        W60358  32.911  27.786   0.052
 7463W        W60359  10.734  27.471   7.243
 7464W        W60360  30.274  31.541   9.344
 7465W        W60361   1.070  24.863   7.546
 7466W        W60362  15.164  26.668   0.990
 7467W        W60363   6.450  26.911  10.020
 7468W        W60364  14.145  35.617   8.967
 7469W        W60365  14.661  22.025   9.945
 7470W        W60366  17.974  13.384   9.128
 7471W        W60367   0.879  19.142   1.940
 7472W        W60368   6.031   3.911   2.031
 7473W        W60369  25.310  13.542   8.966
 7474W        W60370  24.413  28.506   2.004
 7475W        W60371  21.742  24.216   9.953
 7476W        W60372   4.838  15.218  10.015
 7477W        W60373   6.916  20.716   2.451
 7478W        W60374   1.403   7.964   9.431
 7479W        W60375  28.900  23.314  10.062
 7480W        W60376   1.027  19.432   2.895
 7481W        W60377  35.516  21.205   0.696
 7482W        W60378   9.644  34.395   1.701
 7483W        W60379   8.409  11.717   2.059
 7484W        W60380  10.042  21.976   9.728
 7485W        W60381   5.212  14.806   1.888
 7486W        W60382  17.330  31.490   3.215
 7487W        W60383  29.288   6.660   9.791
 7488W        W60384  35.517  33.738   0.225
 7489W        W60385   6.848  20.927   2.028
 7490W        W60386   9.983  18.188   9.980
 7491W        W60387  14.146  17.357  10.247
 7492W        W60388  17.499   2.852   2.708
 7493W        W60389  23.092  18.215   2.403
 7494W        W60390   5.560  17.550   7.954
 7495W        W60391  16.141   0.244   7.631
 7496W        W60392  23.401  16.222   2.166
 7497W        W60393  15.445  29.000   9.615
 7498W        W60394  19.296  21.036   8.536
 7499W        W60395  13.494  17.840   0.720
 7500W        W60396  12.322  22.746   3.244
 7501W        W60397  24.415   5.025   9.546
 7502W        W60398   7.778  14.570   0.166
 7503W        W60399  28.756  21.907   8.332
 7504W        W60400  31.226   8.338   9.024
 7505W        W60401  24.360  21.426   1.340
 7506W        W60402   5.964  31.041   0.168
 7507W        W60403  23.225  24.004   9.817
 7508W        W60404  32.044  26.839   9.719
 7509W        W60405  18.097  33.138   2.936
 7510W        W60406  15.690   0.103   8.981
 7511W        W60407  27.480  11.086   2.187
 7512W        W60408  23.617  32.767   0.258
 7513W        W60409  17.392  11.567   8.922
 7514W        W60410  22.626  25.428   8.352
 7515W        W60411  35.240   9.604   1.145
 7516W        W60412  15.641  10.156   0.023
 7517W        W60413  18.866  16.970   9.867
 7518W        W60414   1.777   0.130   1.320
 7519W        W60415  33.703  23.171   9.035
 7520W        W60416  17.097   9.490   0.581
 7521W        W60417  23.491   9.537   0.347
 7522W        W60418  11.300  19.825   9.521
 7523W        W60419  12.064   5.771   2.079
 7524W        W60420  21.796   0.569  10.047
 7525W        W60421   2.848   5.383   8.909
 7526W        W60422  15.914  30.110   1.408
 7527W        W60423  24.878  26.160   2.003
 7528W        W60424  23.804  28.823  10.000
 7529W        W60425   2.881  26.578   0.602
 7530W        W60426   9.448  29.088   8.226
 7531W        W60427  22.898   9.099   1.028
 7532W        W60428  20.099  15.196   1.763
 7533W        W60429  28.557  26.320   0.730
 7534W        W60430  21.179   6.232   2.738
 7535W        W60431   6.394  20.853   7.897
 7536W        W60432  33.235  25.352   8.842
 7537W        W60433  27.064   7.922   1.455
 7538W        W60434  30.956  27.024   2.544
 7539W        W60435  12.517  32.974   9.367
 7540W        W60436   8.297  30.304   0.457
 7541W        W60437  16.511  35.436   8.298
 7542W        W60438  28.620  13.137   1.653
 7543W        W60439  33.513  12.447   2.297
 7544W        W60440  32.484  21.854   9.316
 7545W        W60441   7.158   7.239   7.566
 7546W        W60442  20.590  17.892   7.633
 7547W        W60443   9.684  21.730   3.000
 7548W        W60444   0.050  17.313   2.650
 7549W        W60445  34.447   0.145   8.720
 7550W        W60446  25.139   3.114   1.626
 7551W        W60447  22.132  35.037   7.488
 7552W        W60448  25.493   2.840   9.777
 7553W        W60449  20.056   0.648   2.959
 7554W        W60450  28.716  12.455   2.213
 7555W        W60451  35.660  34.896   9.815
 7556W        W60452   2.516  14.635   3.497
 7557W        W60453  24.923   8.370   8.751
 7558W        W60454  17.173  30.814   0.322
 7559W        W60455  28.020  28.752   9.754
 7560W        W60456  24.836  35.837   2.689
 7561W        W60457  19.278  22.125   1.837
 7562W        W60458  27.396   0.993   0.962
 7563W        W60459  15.602   1.276   9.611
 7564W        W60460   2.171  27.603   2.206
 7565W        W60461  24.428  29.994   8.331
 7566W        W60462   7.627   0.619   7.559
 7567W        W60463  29.798  21.893   3.212
 7568W        W60464  26.274  15.043   1.395
 7569W        W60465  19.256   7.517   2.742
 7570W        W60466   5.913   0.052   1.928
 7571W        W60467   4.682  11.373   8.551
 7572W        W60468  18.297   3.280   0.422
 7573W        W60469  24.912  24.855   8.444
 7574W        W60470  29.399  31.529   9.546
 7575W        W60471  23.003   8.449   8.479
 7576W        W60472   6.146  34.455   7.924
 7577W        W60473  14.282  31.744   8.259
 7578W        W60474   5.852   2.670   3.193
 7579W        W60475  12.011  33.240   1.828
 7580W        W60476  25.745   7.524  10.075
 7581W        W60477  12.549  11.490   2.935
 7582W        W60478  18.044  33.415   9.960
 7583W        W60479  32.929  15.520   1.674
 7584W        W60480  15.763   4.535   8.112
 7585W        W60481  30.018   4.134   1.196
 7586W        W60482  21.089  18.634   0.345
 7587W        W60483  30.792  30.155   0.138
 7588W        W60484   2.952  18.359   7.160
 7589W        W60485  12.457  33.885   2.053
 7590W        W60486  11.349  20.848   1.010
 7591W        W60487  26.143  23.030   3.272
 7592W        W60488  35.748   9.345   8.914
 7593W        W60489  11.617   1.834  10.328
 7594W        W60490  24.494   3.612   2.711
 7595W        W60491   9.651  12.808   8.692
 7596W        W60492   4.994  17.020   8.957
 7597W        W60493  17.940  22.303   7.804
 7598W        W60494  11.769  16.078   2.274
 7599W        W60495   6.535  14.577   3.336
 7600W        W60496  26.970  15.992   3.420
 7601W        W60497   1.310  11.398   3.229
 7602W        W60498  17.239   3.801  10.016
 7603W        W60499  27.230   0.028   1.620
 7604W        W60500   6.586  30.748   1.575
 7605W        W60501  21.657  25.656   8.005
 7606W        W60502  24.879   2.482   8.519
 7607W        W60503  29.925   2.035   1.237
 7608W        W60504   4.603  34.392   1.010
 7609W        W60505  27.062  31.918   0.354
 7610W        W60506  26.323  35.298   8.600
 7611W        W60507  26.711  33.456   8.225
 7612W        W60508   1.973  10.411   0.139
 7613W        W60509   5.231   2.498   9.881
 7614W        W60510   8.285  28.209   9.173
 7615W        W60511  26.047  21.040   2.100
 7616W        W60512  11.345  34.209   9.724
 7617W        W60513  23.715   8.853   7.798
 7618W        W60514  20.780  19.417   8.042
 7619W        W60515  28.185  28.619   7.215
 7620W        W60516  28.226  21.895   8.465
 7621W        W60517  31.242   4.608   2.787
 7622W        W60518   3.597   4.808   2.996
 7623W        W60519   4.229  31.999   2.295
 7624W        W60520  31.751  24.475   7.808
 7625W        W60521  28.201  30.444   7.420
 7626W        W60522  10.411  24.447   7.827
 7627W        W60523  31.327   7.209   9.316
 7628W        W60524  34.272  13.357   2.430
 7629W        W60525  23.403   6.139   8.651
 7630W        W60526  17.710  22.326   9.701
 7631W        W60527  10.579   8.068   8.080
 7632W        W60528  33.201   2.254   2.534
 7633W        W60529   1.692  32.851   3.279
 7634W        W60530  13.268   3.216   3.344
 7635W        W60531  12.841  30.376   7.438
 7636W        W60532   4.860  30.548   0.814
 7637W        W60533   9.577  22.827   0.508
 7638W        W60534  29.895   4.919   8.337
 7639W        W60535  20.584  16.652   7.921
 7640W        W60536   6.748  12.162   2.283
 7641W        W60537  14.285   2.630   1.069
 7642W        W60538   9.706  31.048   1.236
 7643W        W60539  17.979   4.399   0.226
 7644W        W60540   7.383  11.457   7.424
 7645W        W60541   6.994   7.574   1.989
 7646W        W60542  35.447  17.324   0.489
 7647W        W60543  32.268   9.891   1.201
 7648W        W60544  31.699  21.794   7.786
 7649W        W60545  18.127  21.980   0.331
 7650W        W60546  17.234  26.842   7.479
 7651W        W60547  21.467  14.273   8.080
 7652W        W60548   0.131   8.922   1.646
 7653W        W60549  11.773  21.455   8.123
 7654W        W60550   0.678   2.414   8.402
 7655W        W60551  30.189  20.318   3.134
 7656W        W60552  10.248  22.887   7.065
 7657W        W60553   7.297  12.196   0.054
 7658W        W60554  20.817  33.507   8.184
 7659W        W60555  26.056  14.029   0.975
 7660W        W60556  20.050  34.391   3.218
 7661W        W60557  13.877  26.564   2.667
 7662W        W60558   2.184   5.748   8.002
 7663W        W60559  19.587   8.064  10.137
 7664W        W60560  15.031  16.847   3.231
 7665W        W60561  11.286  14.165   9.603
 7666W        W60562  27.101  18.953   0.831
 7667W        W60563   3.234   3.728   1.548
 7668W        W60564  27.702   8.466   2.633
 7669W        W60565  24.647  10.914  10.259
 7670W        W60566  14.021  22.577   0.875
 7671W        W60567  19.093  17.631   9.935
 7672W        W60568  14.079  10.662   8.186
 7673W        W60569  17.536  28.357   9.272
 7674W        W60570   1.846  10.013   3.712
 7675W        W60571  20.948  13.663   1.506
 7676W        W60572  20.875  28.446  10.296
 7677W        W60573  32.577   8.832   7.709
 7678W        W60574   5.031  29.217   9.914
 7679W        W60575  32.321  24.795   1.184
 7680W        W60576  14.325   6.405   3.076
 7681W        W60577   9.310  28.632   8.473
 7682W        W60578  22.774  33.082   7.916
 7683W        W60579  20.888  22.874   9.796
 7684W        W60580  15.740   3.305   9.225
 7685W        W60581  21.592  14.721   8.324
 7686W        W60582   4.955  24.684   2.239
 7687W        W60583  13.209  35.281   9.636
 7688W        W60584  25.368  32.068   2.187
 7689W        W60585  19.811  20.707   1.489
 7690W        W60586  30.120  23.185   2.733
 7691W        W60587  11.365  34.077   7.509
 7692W        W60588  24.697   4.491   1.054
 7693W        W60589  13.043  19.027   0.535
 7694W        W60590   2.830  15.036   1.790
 7695W        W60591  28.283  26.075   2.305
 7696W        W60592  15.294  20.234   2.675
 7697W        W60593  23.044  12.705   0.102
 7698W        W60594   2.697   4.290   9.458
 7699W        W60595   9.891   0.642   8.377
 7700W        W60596   1.200  31.152   2.955
 7701W        W60597   4.665  16.102   1.308
 7702W        W60598  18.107  28.100   1.707
 7703W        W60599   5.883  29.507   1.153
 7704W        W60600  31.579  28.712   1.499
 7705W        W60601  13.738  13.377   2.204
 7706W        W60602  13.131  29.627   8.804
 7707W        W60603   5.697   6.328   8.716
 7708W        W60604  25.324  31.026   0.037
 7709W        W60605  18.837  35.264   1.229
 7710W        W60606  18.408   9.822   7.997
 7711W        W60607   7.738  20.947   6.900
 7712W        W60608   8.405  24.702   2.556
 7713W        W60609   7.513  19.687  10.045
 7714W        W60610   1.150  32.260   2.195
 7715W        W60611  26.826  35.614   2.887
 7716W        W60612  14.334  30.112   3.263
 7717W        W60613  10.251  23.854   7.164
 7718W        W60614   4.104  14.249   0.168
 7719W        W60615  19.623  27.134   9.972
 7720W        W60616   1.510   7.147   8.811
 7721W        W60617  15.570   1.882   0.274
 7722W        W60618  18.322  35.216   3.249
 7723W        W60619  10.327   2.242   6.867
 7724W        W60620   2.577   4.514   1.315
 7725W        W60621  30.850   3.091   3.495
 7726W        W60622  21.442  32.561   7.752
 7727W        W60623  23.776  23.168   9.785
 7728W        W60624  12.522  29.400   1.323
 7729W        W60625  25.531  17.198   7.469
 7730W        W60626  22.692  32.930   2.615
 7731W        W60627   9.413  27.823   8.469
 7732W        W60628   1.318  33.481   2.019
 7733W        W60629  28.393  27.137   8.981
 7734W        W60630  29.292  24.321   1.242
 7735W        W60631  22.052  22.402   0.574
 7736W        W60632  23.494  28.556   2.480
 7737W        W60633  29.512  28.475   8.437
 7738W        W60634   9.917   9.101   7.878
 7739W        W60635  18.579   7.012   9.986
 7740W        W60636  17.545  20.845   1.693
 7741W        W60637  35.830  23.661   9.463
 7742W        W60638  21.076  33.518   2.239
 7743W        W60639  13.641   3.379   3.035
 7744W        W60640  11.808   6.644   7.570
 7745W        W60641  14.054  34.566   7.672
 7746W        W60642  21.365  10.551   3.473
 7747W        W60643   7.595  30.294   0.302
 7748W        W60644  28.984  21.832   1.829
 7749W        W60645  11.347  34.434   0.562
 7750W        W60646  27.906  17.125   2.726
 7751W        W60647  18.560  10.722   1.954
 7752W        W60648  17.516  15.899   2.886
 7753W        W60649  20.427   8.829   1.496
 7754W        W60650  22.149   9.036   8.003
 7755W        W60651  14.434   8.279   0.933
 7756W        W60652  19.847  31.531  10.102
 7757W        W60653   4.375   7.199   9.450
 7758W        W60654  13.348  17.954   3.099
 7759W        W60655   9.827   5.992   0.575
 7760W        W60656  28.860  17.985   2.430
 7761W        W60657  28.706  26.357   8.001
 7762W        W60658  16.846  18.780   7.709
 7763W        W60659  11.355  24.722   8.061
 7764W        W60660  21.410  25.790   0.623
 7765W        W60661  21.190  25.702  10.122
 7766W        W60662  32.380   1.751   1.231
 7767W        W60663  15.221  18.859   2.175
 7768W        W60664  13.646  29.583   9.717
 7769W        W60665  20.630  31.516   8.460
 7770W        W60666   0.544  20.448   9.266
 7771W        W60667  26.444   2.358   1.605
 7772W        W60668  35.353  31.252   1.576
 7773W        W60669  12.704  21.832   7.235
 7774W        W60670  12.812  16.820   9.305
 7775W        W60671  32.622  32.298   0.748
 7776W        W60672  14.355  15.088   1.587
 7777W        W60673  28.828  29.684   9.589
 7778W        W60674  22.259   6.159   8.824
 7779W        W60675  17.780  29.773   8.073
 7780W        W60676   6.070   4.463  10.026
 7781W        W60677  28.733   9.703   2.817
 7782W        W60678  15.639  10.204   1.661
 7783W        W60679  35.291  14.854   0.379
 7784W        W60680  32.765  31.322   2.893
 7785W        W60681  25.855   8.344   7.713
 7786W        W60682   9.629  28.499   9.127
 7787W        W60683  20.529  32.898   7.789
 7788W        W60684   1.206   3.177   7.972
 7789W        W60685   0.757   7.969   0.291
 7790W        W60686  19.973  34.018   0.037
 7791W        W60687  14.471  16.297   8.977
 7792W        W60688  23.130  30.954   7.119
 7793W        W60689  11.565   7.608   8.013
 7794W        W60690   1.708  29.561   8.948
 7795W        W60691  17.608  21.360   9.367
 7796W        W60692   0.961  29.878   2.716
 7797W        W60693   6.098  20.916   8.875
 7798W        W60694   3.002   8.374   9.594
 7799W        W60695  11.668  33.477   8.381
 7800W        W60696  18.331  21.344   8.903
 7801W        W60697  13.971  30.871   3.168
 7802W        W60698  13.379  26.668   2.900
 7803W        W60699  15.027  24.171   9.013
 7804W        W60700  24.971  11.339   9.386
 7805W        W60701  18.799  35.084   3.016
 7806W        W60702  17.461  16.469   0.020
 7807W        W60703   4.826  15.389   1.930
 7808W        W60704  23.150  33.189   1.093
 7809W        W60705  14.569  35.052   0.942
 7810W        W60706  27.711   5.848   9.064
 7811W        W60707   4.784  25.448   8.677
 7812W        W60708   9.588  26.627   7.959
 7813W        W60709  35.478  35.270   9.518
 7814W        W60710   5.047   5.204  10.263
 7815W        W60711  24.282   0.996   2.068
 7816W        W60712   6.482  34.702   9.194
 7817W        W60713  14.161  17.549   2.087
 7818W        W60714  20.879  11.211   9.303
 7819W        W60715  26.507   1.246   1.486
 7820W        W60716   9.163   1.576   9.006
 7821W        W60717  15.915  11.447   9.475
 7822W        W60718   8.870   1.458   1.715
 7823W        W60719  16.508   3.846   3.428
 7824W        W60720  22.156   0.464   0.087
 7825W        W60721   0.863  35.155   9.497
 7826W        W60722  31.682  28.034   9.143
 7827W        W60723  32.656  21.006  10.182
 7828W        W60724   6.007  21.721   7.896
 7829W        W60725   9.813  18.494   1.339
 7830W        W60726  10.079  14.280   8.186
 7831W        W60727  24.837   3.669   0.040
 7832W        W60728  21.830  25.915  10.060
 7833W        W60729  23.199   4.996   3.982
 7834W        W60730  17.171  12.660   1.224
 7835W        W60731   3.137  13.929   9.595
 7836W        W60732   8.611   1.719   2.033
 7837W        W60733  29.073   9.818   3.197
 7838W        W60734  31.267  19.601   8.401
 7839W        W60735  15.616  13.564  10.317
 7840W        W60736  23.658  16.137   9.840
 7841W        W60737  11.985  32.230   7.873
 7842W        W60738  18.512  16.458   8.139
 7843W        W60739  13.733  14.673   0.597
 7844W        W60740  22.557  18.358   8.118
 7845W        W60741  28.661  23.037   1.203
 7846W        W60742  11.303  19.416   2.689
 7847W        W60743   7.883   6.696  10.309
 7848W        W60744  34.025   8.593   0.048
 7849W        W60745   2.524   4.912   8.047
 7850W        W60746  21.413  30.796   7.494
 7851W        W60747  32.335  24.025   8.068
 7852W        W60748  22.515  11.671   9.670
 7853W        W60749  15.129  35.162   8.792
 7854W        W60750  24.560  19.226   7.944
 7855W        W60751  19.873  12.738   7.884
 7856W        W60752  25.643  14.077  10.221
 7857W        W60753   8.642  22.786   2.091
 7858W        W60754  14.118  12.816   7.914
 7859W        W60755   8.055  28.619   1.537
 7860W        W60756  34.713  10.945   8.909
 7861W        W60757  13.167  28.992   0.017
 7862W        W60758   8.311   0.689   7.923
 7863W        W60759  21.124  17.796   0.025
 7864W        W60760  25.859  32.465   0.674
 7865W        W60761  31.896   3.198   0.248
 7866W        W60762  21.811  33.827   8.772
 7867W        W60763   8.425   6.519  10.111
 7868W        W60764  34.202   3.714   2.360
 7869W        W60765   4.836   5.579   9.892
 7870W        W60766   5.671   6.996   3.080
 7871W        W60767  26.126  19.812   0.391
 7872W        W60768  18.391  13.365   2.201
 7873W        W60769   8.919   7.241   9.101
 7874W        W60770  10.645   8.760   0.779
 7875W        W60771  31.044  19.759   3.565
 7876W        W60772   4.067  29.325  10.305
 7877W        W60773  11.635  28.923   2.747
 7878W        W60774   7.704  23.977   7.282
 7879W        W60775  27.534  16.221   1.302
 7880W        W60776  10.742  31.525   3.385
 7881W        W60777  17.130  22.496   1.796
 7882W        W60778  16.268  21.062   7.762
 7883W        W60779  28.624  18.933   0.827
 7884W        W60780  20.728   2.269   1.343
 7885W        W60781  33.868  34.177   0.888
 7886W        W60782  17.658  30.284   1.398
 7887W        W60783  13.760  21.700   9.033
 7888W        W60784  34.069  28.322   9.193
 7889W        W60785   8.192  13.977   7.114
 7890W        W60786  33.806  33.901   8.980
 7891W        W60787  18.324  22.016   7.653
 7892W        W60788  30.293  17.984   1.941
 7893W        W60789  26.795   1.005   0.086
 7894W        W60790  22.564  34.926   7.876
 7895W        W60791  26.140   6.898   1.907
 7896W        W60792   1.708  17.444   1.870
 7897W        W60793  28.174  34.155   9.661
 7898W        W60794   5.563  35.365   2.533
 7899W        W60795  12.092   8.213   2.812
 7900W        W60796  27.217   7.598   1.077
 7901W        W60797  15.686  21.083   8.488
 7902W        W60798  27.926  28.893   1.545
 7903W        W60799  34.153  15.270   2.168
 7904W        W60800  11.759  32.096   8.836
 7905W        W60801   5.339  29.342   8.308
 7906W        W60802   0.577  17.537   3.901
 7907W        W60803  17.731  32.750   1.648
 7908W        W60804  12.861   6.615   1.382
 7909W        W60805  33.564  11.464   0.415
 7910W        W60806   6.073   6.950   9.460
 7911W        W60807  33.994  23.453   8.687
 7912W        W60808  26.419  24.446   1.759
 7913W        W60809  18.806  31.329   3.138
 7914W        W60810  26.183   7.116   8.036
 7915W        W60811   7.746  10.119   0.724
 7916W        W60812  15.917   9.884   1.467
 7917W        W60813   6.333  12.572   1.077
 7918W        W60814  30.302  20.285   0.253
 7919W        W60815  24.472  18.265   2.150
 7920W        W60816  30.861  28.162   7.741
 7921W        W60817  19.068  28.194   8.760
 7922W        W60818  13.647   7.756  10.315
 7923W        W60819   0.537  22.156   1.507
 7924W        W60820  35.895  26.195   9.224
 7925W        W60821   3.126   5.948   9.496
 7926W        W60822   2.730  24.432   0.806
 7927W        W60823   1.985   3.312   1.476
 7928W        W60824  25.086   5.609   9.785
 7929W        W60825   8.841   0.732   2.424
 7930W        W60826   6.165  12.627   2.846
 7931W        W60827  28.327  16.895   0.743
 7932W        W60828  33.854  31.823   3.130
 7933W        W60829  18.951  13.025  10.070
 7934W        W60830  25.322   1.701   8.750
 7935W        W60831  27.661  14.439   2.670
 7936W        W60832  23.796  21.411   2.113
 7937W        W60833   5.033  13.551   7.783
 7938W        W60834   8.513   8.509   1.305
 7939W        W60835  15.899  14.042   8.804
 7940W        W60836   1.473  30.632   8.116
 7941W        W60837   5.469  26.570   2.175
 7942W        W60838  21.861  27.651   7.365
 7943W        W60839  10.830  11.490   7.586
 7944W        W60840  21.287  27.134  10.237
 7945W        W60841  33.878   6.238   2.270
 7946W        W60842  14.216  15.912   1.344
 7947W        W60843   1.966   0.357   2.737
 7948W        W60844   1.935  18.413   0.310
 7949W        W60845   5.280  12.659   9.553
 7950W        W60846  35.594  15.907   8.859
 7951W        W60847  18.675  34.641   3.211
 7952W        W60848  27.747   1.791   9.658
 7953W        W60849  30.187  13.579   2.878
 7954W        W60850  22.967  11.776   8.476
 7955W        W60851  20.682  35.582   2.178
 7956W        W60852  34.664  20.881   0.100
 7957W        W60853  17.875  24.540   0.345
 7958W        W60854  10.623   6.485   2.449
 7959W        W60855   4.538  33.520   1.978
 7960W        W60856   3.647  29.991   0.806
 7961W        W60857  24.847  13.928   2.088
 7962W        W60858   2.472  22.124   9.930
 7963W        W60859   9.211  27.779   9.262
 7964W        W60860  13.819  30.916   9.241
 7965W        W60861  16.537  21.348   1.252
 7966W        W60862  19.355  28.665   0.019
 7967W        W60863   9.850  26.773   2.392
 7968W        W60864   2.387  17.534   0.255
 7969W        W60865  28.006  19.367   1.491
 7970W        W60866   4.650   3.567   7.650
 7971W        W60867  21.438  19.428   1.467
 7972W        W60868   3.964   9.702   3.241
 7973W        W60869  22.398  12.876   3.700
 7974W        W60870  19.437  11.378   8.716
 7975W        W60871  11.141   8.974   7.527
 7976W        W60872   3.308  15.586   2.933
 7977W        W60873  21.341   0.372   9.033
 7978W        W60874  11.245  12.069   8.006
 7979W        W60875   6.721  14.334   2.382
 7980W        W60876  21.799   0.411   1.918
 7981W        W60877  25.289   5.990   3.274
 7982W        W60878  22.673  23.033   0.142
 7983W        W60879  24.389  13.255   8.408
 7984W        W60880  10.527  13.489   2.592
 7985W        W60881  14.621  16.101   3.108
 7986W        W60882  33.948  21.884   2.380
 7987W        W60883   6.106   4.211   2.539
 7988W        W60884  21.354  30.214   9.820
 7989W        W60885  30.171   8.685   3.327
 7990W        W60886  29.638  21.211   0.607
 7991W        W60887   7.872  21.354   0.694
 7992W        W60888  26.343  35.644   8.249
 7993W        W60889   6.392  26.113   6.606
 7994W        W60890  12.331   2.510   3.259
 7995W        W60891  14.990  19.644   7.476
 7996W        W60892   5.884  22.741   7.052
 7997W        W60893   4.483   4.214   3.120
 7998W        W60894  21.468   5.579   2.057
 7999W        W60895  15.605  22.408   8.818
 8000W        W60896  16.365  12.765   8.842
 8001W        W60897  34.766  12.319   1.987
 8002W        W60898  34.304  21.106   0.845
 8003W        W60899  29.666  19.529   2.888
 8004W        W60900  12.960  26.690   3.252
 8005W        W60901  12.450   9.799   8.853
 8006W        W60902  34.358  12.312   1.732
 8007W        W60903  28.248  16.757   2.681
 8008W        W60904  25.454   0.304   1.077
 8009W        W60905   5.283  24.351   2.530
 8010W        W60906  26.573  11.245   1.086
 8011W        W60907   6.668  24.987   7.532
 8012W        W60908  31.667   1.951   8.863
 8013W        W60909  16.842   3.997   0.828
 8014W        W60910  34.902   6.998   1.343
 8015W        W60911  23.134  20.424   8.324
 8016W        W60912  25.580  10.240   8.032
 8017W        W60913  19.424  21.749   8.245
 8018W        W60914  17.275   8.954  10.133
 8019W        W60915  21.354  33.648   9.556
 8020W        W60916  12.114  34.698   1.724
 8021W        W60917  11.962  34.088   1.611
 8022W        W60918  25.917  20.112   1.553
 8023W        W60919  14.646  33.980   2.685
 8024W        W60920   8.065   6.193   9.987
 8025W        W60921  23.852   8.992   3.613
 8026W        W60922  17.447  20.565  10.157
 8027W        W60923   9.260  21.919   0.047
 8028W        W60924  27.921  26.882   8.295
 8029W        W60925  23.596  22.575   8.745
 8030W        W60926  14.412  33.675   0.585
 8031W        W60927  10.683  11.162   9.613
 8032W        W60928   7.339  15.890   2.519
 8033W        W60929  29.266  29.446   9.552
 8034W        W60930  16.565  24.126   9.856
 8035W        W60931   7.280  14.066   1.674
 8036W        W60932  11.850  29.239   3.347
 8037W        W60933  17.668  33.151   2.670
 8038W        W60934  14.726   5.812   9.482
 8039W        W60935  18.376  19.495   0.044
 8040W        W60936   3.172   2.778   1.268
 8041W        W60937  22.310  20.067   9.541
 8042W        W60938  16.927   0.271   9.783
 8043W        W60939  19.977  24.034   0.796
 8044W        W60940  14.095  30.227   9.950
 8045W        W60941   6.123  13.378   0.684
 8046W        W60942  27.861  27.184   2.166
 8047W        W60943   3.269  11.185   9.527
 8048W        W60944  18.038  31.948   6.989
 8049W        W60945  25.397  22.015   2.030
 8050W        W60946   1.530  10.376   8.266
 8051W        W60947   2.888  12.182  10.066
 8052W        W60948  22.715  34.932   2.366
 8053W        W60949  13.163  27.132   9.715
 8054W        W60950  20.278   6.109   2.459
 8055W        W60951  17.584  27.191   9.877
 8056W        W60952  15.700  26.153   2.092
 8057W        W60953  16.184  11.406   3.756
 8058W        W60954  34.433  17.047  10.020
 8059W        W60955   2.760   9.510   1.687
 8060W        W60956  10.578  35.904   7.324
 8061W        W60957   1.211  14.762   9.221
 8062W        W60958  29.730  13.831   0.962
 8063W        W60959   4.852   1.423   0.435
 8064W        W60960  22.805  17.746   8.090
 8065W        W60961  34.662  34.662   0.513
 8066W        W60962  29.300  32.520   1.708
 8067W        W60963  31.047  29.891   8.183
 8068W        W60964   6.579   3.134   0.040
 8069W        W60965   1.337   2.353   1.671
 8070W        W60966  17.205  32.610   8.273
 8071W        W60967   4.206   3.367   8.302
 8072W        W60968  33.929  30.229   1.197
 8073W        W60969  24.069  28.114   2.077
 8074W        W60970   6.516   7.105   9.711
 8075W        W60971  13.492  22.482   9.525
 8076W        W60972  22.941   0.511   8.396
 8077W        W60973  31.367  13.553   7.512
 8078W        W60974  22.300  19.788   2.974
 8079W        W60975   3.714   5.551   9.123
 8080W        W60976  32.276  26.122   9.282
 8081W        W60977  23.685  27.075   9.186
 8082W        W60978  29.492  24.235   8.707
 8083W        W60979  27.515  32.880   0.074
 8084W        W60980  12.459  34.103   2.574
 8085W        W60981  26.881   9.258   9.331
 8086W        W60982  11.335  27.576   2.761
 8087W        W60983  17.216   2.723   3.578
 8088W        W60984  27.192  24.816  10.327
 8089W        W60985  31.485  17.101   8.328
 8090W        W60986  35.750  18.199   0.975
 8091W        W60987   2.849  26.262   8.882
 8092W        W60988  24.351   4.887   2.124
 8093W        W60989  16.309   6.956   0.687
 8094W        W60990  10.898  26.030   0.434
 8095W        W60991   1.391  21.062   9.173
 8096W        W60992  23.535  29.440   9.186
 8097W        W60993   6.369  16.413   2.403
 8098W        W60994  18.454  19.184   2.548
 8099W        W60995   1.225  17.467  10.180
 8100W        W60996  32.755  18.507   8.468
 8101W        W60997  23.001  24.811   1.823
 8102W        W60998  28.068  28.961   1.068
 8103W        W60999  22.925  12.694   8.910
 8104W        W61000  20.427  18.576   9.496
 8105W        W61001   7.417  30.604  10.311
 8106W        W61002   1.803  10.184   2.931
 8107W        W61003  24.804  13.568   9.099
 8108W        W61004  30.272  30.093   0.290
 8109W        W61005  33.199   0.261   9.192
 8110W        W61006  16.578  19.802   0.430
 8111W        W61007  17.764  12.760   9.429
 8112W        W61008  11.501  35.301   1.122
 8113W        W61009   2.122  27.959   0.924
 8114W        W61010  26.301   3.577   0.039
 8115W        W61011  19.878  34.008   8.190
 8116W        W61012  27.448   5.482   1.169
 8117W        W61013  26.302  35.630   3.094
 8118W        W61014  12.432   9.949   1.790
 8119W        W61015   0.341  33.608   2.140
 8120W        W61016  19.245   8.146   2.116
 8121W        W61017  21.910  34.698   0.680
 8122W        W61018  12.230   0.487   9.399
 8123W        W61019  28.709  10.474   0.287
 8124W        W61020  11.461   9.974   9.800
 8125W        W61021  10.068   4.451   8.303
 8126W        W61022  14.038   0.633   1.777
 8127W        W61023  12.039   1.800   0.556
 8128W        W61024   5.897  12.026   1.608
 8129W        W61025   3.385  27.580   1.695
 8130W        W61026  27.053  11.855   2.380
 8131W        W61027  25.706  27.512   2.307
 8132W        W61028  16.919   0.400   7.488
 8133W        W61029   9.073  13.721   3.723
 8134W        W61030  26.201   0.704   8.436
 8135W        W61031  14.454  26.872   2.527
 8136W        W61032   7.291  32.268   9.728
 8137W        W61033  33.016  35.919   2.412
 8138W        W61034  33.659  29.336   3.338
 8139W        W61035  33.356  32.534   0.101
 8140W        W61036  11.745  30.499   9.287
 8141W        W61037  22.701  31.699   2.908
 8142W        W61038  25.083  11.961   7.072
 8143W        W61039  13.434  33.290   8.202
 8144W        W61040  29.549  28.451   9.252
 8145W        W61041  29.933   5.482   0.040
 8146W        W61042   9.279   6.548   7.105
 8147W        W61043  26.765  19.845   7.823
 8148W        W61044  10.066  12.747   0.072
 8149W        W61045  10.749   8.402   9.993
 8150W        W61046  11.235  30.114   9.990
 8151W        W61047   2.789  26.115   0.458
 8152W        W61048  34.846  28.560   0.496
 8153W        W61049   4.478   6.986   1.092
 8154W        W61050   3.217  32.956   2.141
 8155W        W61051  17.506  35.372   2.598
 8156W        W61052  23.729  22.597   7.691
 8157W        W61053  11.554   3.704   7.262
 8158W        W61054   4.428  11.051   8.326
 8159W        W61055  26.164   6.535   8.782
 8160W        W61056  26.240  28.048   9.209
 8161W        W61057  23.891  29.350   1.239
 8162W        W61058  35.293  34.453   1.642
 8163W        W61059  26.434   0.226  10.242
 8164W        W61060  22.600  11.168   0.500
 8165W        W61061  25.534   1.306   8.021
 8166W        W61062   1.703  34.569   0.358
 8167W        W61063  21.489  33.181  10.328
 8168W        W61064  19.997  11.071   2.227
 8169W        W61065   7.826  16.341   9.839
 8170W        W61066   4.754   4.982   9.898
 8171W        W61067  27.195  25.700   1.169
 8172W        W61068   3.580  19.564   7.522
 8173W        W61069   7.430  25.991   7.262
 8174W        W61070   1.529   4.952   0.734
 8175W        W61071  22.011  27.047   8.694
 8176W        W61072  19.626   8.750   0.066
 8177W        W61073  15.547  12.919   9.216
 8178W        W61074   8.608   5.717   7.361
 8179W        W61075  24.331  13.137   7.503
 8180W        W61076  11.633   9.604   7.008
 8181W        W61077  21.036  24.306   9.069
 8182W        W61078   0.734  35.644   9.103
 8183W        W61079  13.850   5.340   2.776
 8184W        W61080  12.033   7.271   2.659
 8185W        W61081  33.789  20.611   3.199
 8186W        W61082  33.325  22.440   2.396
 8187W        W61083  24.233   1.634   0.037
 8188W        W61084   9.176   4.845   1.960
 8189W        W61085   6.543  13.763   1.360
 8190W        W61086  32.978   2.433   1.535
 8191W        W61087  12.973  21.432  10.153
 8192W        W61088  19.239  18.308  10.048
 8193W        W61089   8.893  18.812   8.177
 8194W        W61090  10.387   7.845   0.230
 8195W        W61091  21.618  12.837   2.503
 8196W        W61092  22.435  20.559   9.550
 8197W        W61093  25.178  23.590   8.569
 8198W        W61094  12.519  16.062   9.295
 8199W        W61095  28.097  32.312   8.014
 8200W        W61096   2.809  22.146   0.550
 8201W        W61097  17.357  16.300   9.013
 8202W        W61098  10.699  25.190   2.038
 8203W        W61099  26.942   6.661   0.733
 8204W        W61100   8.408  10.796   9.210
 8205W        W61101   0.773  10.710   9.505
 8206W        W61102   3.915  12.161   3.095
 8207W        W61103  21.024  25.712   0.288
 8208W        W61104  28.937  34.925   8.373
 8209W        W61105   4.709   7.749  10.259
 8210W        W61106  23.930  10.497   7.261
 8211W        W61107  31.751  26.643   8.881
 8212W        W61108   2.995  31.836   2.097
 8213W        W61109   4.237   9.067  10.165
 8214W        W61110  13.480  35.323   0.238
 8215W        W61111  35.771  13.881   0.232
 8216W        W61112  27.609   0.863   9.957
 8217W        W61113   7.010   7.607   0.364
 8218W        W61114   7.270  12.610   0.314
 8219W        W61115  30.088  17.898   7.593
 8220W        W61116  18.358  28.601   0.862
 8221W        W61117  25.360   7.266  10.275
 8222W        W61118   5.462  16.597   9.967
 8223W        W61119  28.842   8.604   2.782
 8224W        W61120  34.092  17.435   0.875
 8225W        W61121  15.888  25.891   7.819
 8226W        W61122  23.602  13.906   9.352
 8227W        W61123  20.370  26.562   2.330
 8228W        W61124  32.228  25.237   0.950
 8229W        W61125   6.405  25.055   9.475
 8230W        W61126  16.583   1.646   1.344
 8231W        W61127   8.648  35.832   9.059
 8232W        W61128  27.216  17.629   2.898
 8233W        W61129   0.853  35.137   7.827
 8234W        W61130  22.450  12.091   9.917
 8235W        W61131   6.412  26.940   0.966
 8236W        W61132  34.699   0.125   0.997
 8237W        W61133  18.861  22.477   9.154
 8238W        W61134  13.537  13.280   1.740
 8239W        W61135  35.612  35.364   0.918
 8240W        W61136  17.242  12.834   9.506
 8241W        W61137  12.193  16.650   2.891
 8242W        W61138  26.295  30.970   1.118
 8243W        W61139  32.212  25.259   8.534
 8244W        W61140  14.623  34.926   1.795
 8245W        W61141   7.189  13.570   9.373
 8246W        W61142  31.541  24.431   0.244
 8247W        W61143  18.595  30.528   0.147
 8248W        W61144   0.297  31.671   7.972
 8249W        W61145   7.941  30.182   2.037
 8250W        W61146  25.975  35.252   2.868
 8251W        W61147  13.879   8.388   9.569
 8252W        W61148   8.443   9.729   3.356
 8253W        W61149  11.871  28.477   1.227
 8254W        W61150  16.433  10.076   0.236
 8255W        W61151   8.317  26.623   9.982
 8256W        W61152  29.081  12.404   2.601
 8257W        W61153  28.081   0.554   8.293
 8258W        W61154  27.278  16.646   0.326
 8259W        W61155   1.651  34.250   2.454
 8260W        W61156  21.411   3.677   8.543
 8261W        W61157   4.545   6.159   8.358
 8262W        W61158  26.933  35.556   1.807
 8263W        W61159  28.521  25.591   2.231
 8264W        W61160  26.389  24.910   9.764
 8265W        W61161  12.769  24.510   8.876
 8266W        W61162  28.339  10.694   0.022
 8267W        W61163   1.847  27.163   3.051
 8268W        W61164  15.084   2.526   9.800
 8269W        W61165   4.548  19.391   1.454
 8270W        W61166  26.347  26.475   9.031
 8271W        W61167   1.672  21.957   8.174
 8272W        W61168  28.299  12.852   0.803
 8273W        W61169  34.290  33.878   8.646
 8274W        W61170  18.135   6.253   8.729
 8275W        W61171   3.098  15.718   2.165
 8276W        W61172   6.473  15.459   2.353
 8277W        W61173  22.749  29.743   2.778
 8278W        W61174  18.934  12.168   2.491
 8279W        W61175  35.587   8.563   3.569
 8280W        W61176   4.988  21.601   7.975
 8281W        W61177  17.690  25.127   8.704
 8282W        W61178  25.543  22.374   2.991
 8283W        W61179  19.233  28.714   9.585
 8284W        W61180   4.005   1.426   9.026
 8285W        W61181  33.813  12.955   1.166
 8286W        W61182   7.559  10.508   0.320
 8287W        W61183  32.448  23.861   0.478
 8288W        W61184  18.333   3.556   7.659
 8289W        W61185  15.952  10.259   3.004
 8290W        W61186  16.118  16.261   8.205
 8291W        W61187  15.641  34.754   8.055
 8292W        W61188  18.510   3.491   2.841
 8293W        W61189  13.759   4.154   1.543
 8294W        W61190   7.805  29.502   0.678
 8295W        W61191   5.723   8.669   9.351
 8296W        W61192  34.376  24.418   2.286
 8297W        W61193   0.822  14.387  10.298
 8298W        W61194   9.913  19.823   0.943
 8299W        W61195  24.811  34.942   7.878
 8300W        W61196  32.335   1.175   1.882
 8301W        W61197  31.237   3.917   1.070
 8302W        W61198  24.593  34.515  10.194
 8303W        W61199  18.490  25.306   2.752
 8304W        W61200  23.323   1.337   1.429
 8305W        W61201  22.865  16.579   9.672
 8306W        W61202   4.805   7.233   7.489
 8307W        W61203   3.365  19.851   1.124
 8308W        W61204   4.725   9.980   0.614
 8309W        W61205  34.044   4.839   2.498
 8310W        W61206  18.714  20.687   9.672
 8311W        W61207  19.493  32.640   0.857
 8312W        W61208   1.427  33.747   8.356
 8313W        W61209  32.832   5.599  10.204
 8314W        W61210  23.914  22.585   7.192
 8315W        W61211  16.166  23.545   1.908
 8316W        W61212  30.605  23.643   7.333
 8317W        W61213  13.923  11.205   0.124
 8318W        W61214  18.554  14.579   0.886
 8319W        W61215   8.477   0.457   2.211
 8320W        W61216  33.426  32.896   0.834
 8321W        W61217  24.698  19.079   1.944
 8322W        W61218   0.859  22.551   2.460
 8323W        W61219   1.314   5.581   7.846
 8324W        W61220  20.385  31.377   9.365
 8325W        W61221  16.426   3.754   1.281
 8326W        W61222  28.219   0.143   2.253
 8327W        W61223   4.526  21.901   2.110
 8328W        W61224   3.511  26.677   3.801
 8329W        W61225  31.540  20.506   2.659
 8330W        W61226  32.113  14.081   0.826
 8331W        W61227  20.918  13.044   1.780
 8332W        W61228  21.165  25.242   2.886
 8333W        W61229   3.628  24.774   4.379
 8334W        W61230  33.225  35.699   1.891
 8335W        W61231   6.907   4.157   0.986
 8336W        W61232   7.796  23.443   9.408
 8337W        W61233  16.070  20.083   1.117
 8338W        W61234  16.703  18.627  10.226
 8339W        W61235   2.990  31.797   0.177
 8340W        W61236  29.231   4.589   9.871
 8341W        W61237  21.355  13.675   3.213
 8342W        W61238  18.185  19.566   1.648
 8343W        W61239   6.248  20.426   7.603
 8344W        W61240  27.021  20.446   8.921
 8345W        W61241   9.742  25.890   2.680
 8346W        W61242  29.184   3.952   9.996
 8347W        W61243   7.520  14.143   0.089
 8348W        W61244   0.929  34.141   1.160
 8349W        W61245  32.556  11.359   1.934
 8350W        W61246  21.802   2.678   9.492
 8351W        W61247  32.789  15.136   2.624
 8352W        W61248  18.755  22.908   1.046
 8353W        W61249   0.313  10.198   0.431
 8354W        W61250  26.905  17.257   3.071
 8355W        W61251   9.045   3.234   1.830
 8356W        W61252  24.868  13.879   3.623
 8357W        W61253  24.138  21.633   1.722
 8358W        W61254  29.175   5.556   3.822
 8359W        W61255   5.523  29.123   9.666
 8360W        W61256  10.300  11.072   8.268
 8361W        W61257   3.361   1.227  10.061
 8362W        W61258  25.661  10.534   0.360
 8363W        W61259  26.525  32.184   7.706
 8364W        W61260   2.240  22.564   9.711
 8365W        W61261   7.019   4.499   9.230
 8366W        W61262   7.107   0.782   9.601
 8367W        W61263  30.396   3.953   2.015
 8368W        W61264  34.322  32.578   9.561
 8369W        W61265  33.628  27.266   3.149
 8370W        W61266  20.547  22.217   8.533
 8371W        W61267  13.548  10.226   2.505
 8372W        W61268  14.158  29.976   2.583
 8373W        W61269   0.809   2.856   8.588
 8374W        W61270  12.803  10.878   8.555
 8375W        W61271   5.048  31.305   8.115
 8376W        W61272  20.224  24.363   1.223
 8377W        W61273  35.283  34.216  10.111
 8378W        W61274  25.654  10.644   3.592
 8379W        W61275  20.033  14.015   9.596
 8380W        W61276   6.285  18.373   1.513
 8381W        W61277  34.161  22.759   1.981
 8382W        W61278  18.574  34.133   9.126
 8383W        W61279   7.176   4.686   1.907
 8384W        W61280  25.912  13.279   1.696
 8385W        W61281   4.130   7.458   9.066
 8386W        W61282   9.180  35.810   8.968
 8387W        W61283  17.926  33.749   7.548
 8388W        W61284  33.224  34.060   1.269
 8389W        W61285   8.781  28.912   0.216
 8390W        W61286  28.669   2.325   2.451
 8391W        W61287  21.546   4.516   8.052
 8392W        W61288  28.271  30.560   7.916
 8393W        W61289   6.728  17.183   1.798
 8394W        W61290   4.926  23.352   2.806
 8395W        W61291  14.839  34.260   8.073
 8396W        W61292   4.610  20.668   2.227
 8397W        W61293   6.727  35.675   9.701
 8398W        W61294  11.078  28.356   0.978
 8399W        W61295  21.160  10.205   0.257
 8400W        W61296  21.273  16.822   1.019
 8401W        W61297  32.670  33.751   2.193
 8402W        W61298  29.297  23.062   9.574
 8403W        W61299  15.815   0.662   0.746
 8404W        W61300  15.352  30.558   7.669
 8405W        W61301   8.390  27.338   7.644
 8406W        W61302  21.747  29.687   9.004
 8407W        W61303  27.033  29.647   9.806
 8408W        W61304   4.818  18.674   7.815
 8409W        W61305  17.177  28.422   9.795
 8410W        W61306  12.561   3.938   2.673
 8411W        W61307  18.002  13.774   7.972
 8412W        W61308  33.326  29.519   3.921
 8413W        W61309  35.365  34.898   8.815
 8414W        W61310   2.018  16.774   0.442
 8415W        W61311  15.497   4.801   1.616
 8416W        W61312   3.545  34.698   9.165
 8417W        W61313   8.047   9.970   8.258
 8418W        W61314   1.899  13.031   3.713
 8419W        W61315  25.190  13.255   0.167
 8420W        W61316  10.791  32.295   9.585
 8421W        W61317  17.594   5.611   9.387
 8422W        W61318  20.085   9.550  10.067
 8423W        W61319  13.017  11.342   8.572
 8424W        W61320   3.547   3.427   2.958
 8425W        W61321   8.680   1.218   8.963
 8426W        W61322  17.094  28.150   1.200
 8427W        W61323  31.710  24.147   1.894
 8428W        W61324  35.310   5.693   9.756
 8429W        W61325   3.263   5.535   0.834
 8430W        W61326  33.177  15.798   8.785
 8431W        W61327  26.945   0.351   1.371
 8432W        W61328  22.382  28.773   0.153
 8433W        W61329  32.518   8.868   1.339
 8434W        W61330   3.741  14.667   7.676
 8435W        W61331  13.322  21.172   2.861
 8436W        W61332   8.627  24.536   9.160
 8437W        W61333  31.420   5.004   9.407
 8438W        W61334  20.684  30.500   9.362
 8439W        W61335  14.745   9.773   9.802
 8440W        W61336   9.024   9.586   8.418
 8441W        W61337  29.612  26.478   3.420
 8442W        W61338  25.168  11.979   8.286
 8443W        W61339  29.609   4.599   8.757
 8444W        W61340  30.402  13.298   7.732
 8445W        W61341  13.440  34.675   3.923
 8446W        W61342  24.647  29.136   8.237
 8447W        W61343  29.637  27.504   9.882
 8448W        W61344  32.799  16.214   3.860
 8449W        W61345  35.814  25.776   8.982
 8450W        W61346  23.428  17.881   2.592
 8451W        W61347  33.302  20.146   8.762
 8452W        W61348  29.421   2.876   9.704
 8453W        W61349  24.454  34.291   8.168
 8454W        W61350   0.162   0.035   8.257
 8455W        W61351  34.212  15.864   9.599
 8456W        W61352   1.695  27.609   8.722
 8457W        W61353  23.439  11.256   9.369
 8458W        W61354  18.792  26.369   1.167
 8459W        W61355  29.706   5.062   0.160
 8460W        W61356   6.311  29.805   1.264
 8461W        W61357   5.382  21.649   2.916
 8462W        W61358   3.294   2.652   3.390
 8463W        W61359  15.563  11.540   7.488
 8464W        W61360  34.964   4.200   0.890
 8465W        W61361  18.684   0.519   2.465
 8466W        W61362  28.661  16.528   7.399
 8467W        W61363  21.261  34.147   2.323
 8468W        W61364  33.243  25.692   9.535
 8469W        W61365   5.383   7.789   7.907
 8470W        W61366   6.696  21.226   2.719
 8471W        W61367  14.499  35.922   8.028
 8472W        W61368  21.095  34.128   9.740
 8473W        W61369  24.646   0.735   1.826
 8474W        W61370  34.026  25.077   3.450
 8475W        W61371  17.841  27.233   0.367
 8476W        W61372   2.362  11.668   1.561
 8477W        W61373  12.520  33.114   7.838
 8478W        W61374  29.915  30.532   8.895
 8479W        W61375   4.548  15.237   1.051
 8480W        W61376  13.211  22.179   8.175
 8481W        W61377   9.721  33.750   1.390
 8482W        W61378   7.993  31.166   1.690
 8483W        W61379  10.286  23.214   2.474
 8484W        W61380  13.725  18.037   4.055
 8485W        W61381  18.808  19.709   0.321
 8486W        W61382  11.784  32.500   0.812
 8487W        W61383  22.215  35.095   0.436
 8488W        W61384  21.812  26.642   7.974
 8489W        W61385   3.290   7.015   8.317
 8490W        W61386   3.708  19.654   8.397
 8491W        W61387  12.582  29.453   2.289
 8492W        W61388   0.484  31.780   9.012
 8493W        W61389   7.933  23.688   0.707
 8494W        W61390  35.530   1.004   2.855
 8495W        W61391  27.363  25.348   8.933
 8496W        W61392  27.419  26.906   2.350
 8497W        W61393  22.786  31.371   8.801
 8498W        W61394   9.370  15.126   0.157
 8499W        W61395  31.264  27.361   1.413
 8500W        W61396  19.152  13.108   3.317
 8501W        W61397  26.263  22.018   9.769
 8502W        W61398  32.510  17.650   2.800
 8503W        W61399  31.770  21.185   2.893
 8504W        W61400  22.168   3.965   0.619
 8505W        W61401  30.394   8.822   8.167
 8506W        W61402  22.748  30.347   1.627
 8507W        W61403   1.319  19.276   8.490
 8508W        W61404  12.186  29.454   8.477
 8509W        W61405  16.454   7.018   1.195
 8510W        W61406  18.721  13.975   1.965
 8511W        W61407  16.042  32.287   1.504
 8512W        W61408  11.032  19.851   0.680
 8513W        W61409  32.073  22.939   8.912
 8514W        W61410  17.857  24.273   1.343
 8515W        W61411   8.906  25.000   7.624
 8516W        W61412  18.313  15.035   2.741
 8517W        W61413   1.241  28.705   0.651
 8518W        W61414  10.567  23.483   8.252
 8519W        W61415  25.734   5.743   9.503
 8520W        W61416  20.354   4.099   1.910
 8521W        W61417  20.641  27.406   8.385
 8522W        W61418  32.075  16.103  10.271
 8523W        W61419   4.564  14.100   2.331
 8524W        W61420   8.856  23.072   7.342
 8525W        W61421  35.022   3.690   0.578
 8526W        W61422   4.197  12.726   2.409
 8527W        W61423  20.332   6.646   0.385
 8528W        W61424   9.207  15.549   7.636
 8529W        W61425   0.138   1.875   1.703
 8530W        W61426   1.336  22.684   2.405
 8531W        W61427  17.061  25.102   0.151
 8532W        W61428  30.741  26.860   0.278
 8533W        W61429  19.650  13.831   2.438
 8534W        W61430  11.989  25.587   1.069
 8535W        W61431  33.019  14.705   2.757
 8536W        W61432   1.142   1.100   1.042
 8537W        W61433   5.164  25.962   2.626
 8538W        W61434  29.667   0.401   2.491
 8539W        W61435   8.199   4.352   0.835
 8540W        W61436  23.841  10.884   1.373
 8541W        W61437   5.860  24.832   9.607
 8542W        W61438  29.625  16.503   0.495
 8543W        W61439   0.828   9.715   9.972
 8544W        W61440  18.016  29.549   0.453
 8545W        W61441  24.905  27.350   7.523
 8546W        W61442   5.662   9.617   8.935
 8547W        W61443  13.280  34.009   8.727
 8548W        W61444  10.051   1.508   8.748
 8549W        W61445  34.779  33.232   8.307
 8550W        W61446  26.095   6.676   8.269
 8551W        W61447  30.672  10.908   7.688
 8552W        W61448   1.330   7.188   1.618
 8553W        W61449  13.549  10.581   7.444
 8554W        W61450  31.137  28.134   0.159
 8555W        W61451   5.377  16.678   0.173
 8556W        W61452   2.971   8.817   9.242
 8557W        W61453  31.048   7.793   1.408
 8558W        W61454   2.599  22.695   0.940
 8559W        W61455   6.302  27.398   9.961
 8560W        W61456   8.186  11.261   9.993
 8561W        W61457  28.324   6.008   9.411
 8562W        W61458  26.060  27.552   7.327
 8563W        W61459  33.703  32.025   2.701
 8564W        W61460  17.411  23.961   0.728
 8565W        W61461   0.096  30.635   1.129
 8566W        W61462  29.071   9.339   0.608
 8567W        W61463  29.919  31.983   2.662
 8568W        W61464  22.267   1.515   0.225
 8569W        W61465   6.231  19.400   7.797
 8570W        W61466  27.440   3.808   8.496
 8571W        W61467  26.648  12.267   0.051
 8572W        W61468  33.596  11.251   9.708
 8573W        W61469   6.677   5.281   0.523
 8574W        W61470  12.921  23.424   7.905
 8575W        W61471  30.614  20.807   9.849
 8576W        W61472  27.511  30.853   8.204
 8577W        W61473   4.865  22.287   9.188
 8578W        W61474  24.017  27.167   0.357
 8579W        W61475   3.783   9.424   8.834
 8580W        W61476  10.455  21.277   8.767
 8581W        W61477  16.313  10.991   1.985
 8582W        W61478  16.368  17.239   2.747
 8583W        W61479  12.729   9.486   2.326
 8584W        W61480  31.048  20.490   8.099
 8585W        W61481  26.857  24.850   7.480
 8586W        W61482  34.943  32.418   5.027
 8587W        W61483  18.507  16.468   7.188
 8588W        W61484  24.451  31.394   1.409
 8589W        W61485  34.237  20.307   2.617
 8590W        W61486   7.689  18.863   2.059
 8591W        W61487  21.427   1.139  10.311
 8592W        W61488  24.094  30.624   9.771
 8593W        W61489  15.427  20.686   8.297
 8594W        W61490  29.339   8.256   1.272
 8595W        W61491  29.843   1.850   0.351
 8596W        W61492  31.923   0.495  10.266
 8597W        W61493  26.368  23.059   9.487
 8598W        W61494  29.323  10.106   9.942
 8599W        W61495   9.523  16.835   2.339
 8600W        W61496  29.511   3.593  10.237
 8601W        W61497  31.031   4.799  10.319
 8602W        W61498  30.797  29.922   8.576
 8603W        W61499  15.392  10.339   0.437
 8604W        W61500  25.011  18.442   2.263
 8605W        W61501  24.806  18.519   1.765
 8606W        W61502  14.558  19.223   1.084
 8607W        W61503  33.302  27.221   8.050
 8608W        W61504   4.111  31.494   1.312
 8609W        W61505   6.425  11.417   8.422
 8610W        W61506  16.262  22.941   9.133
 8611W        W61507  25.481   3.794  10.196
 8612W        W61508  21.550  20.418   9.537
 8613W        W61509  21.894  27.897   7.876
 8614W        W61510   4.792   7.066   0.434
 8615W        W61511  29.662  28.239   8.825
 8616W        W61512  26.797  22.946   7.714
 8617W        W61513  18.052  33.790   9.593
 8618W        W61514   7.329   7.826   9.796
 8619W        W61515  14.634  15.743   2.193
 8620W        W61516   8.267  13.198   8.631
 8621W        W61517  28.206  18.465   2.961
 8622W        W61518  32.857   0.228   1.634
 8623W        W61519  26.041  23.965   2.699
 8624W        W61520  31.303   2.514   8.296
 8625W        W61521   5.554   6.495   7.223
 8626W        W61522  25.277  29.313   0.871
 8627W        W61523  19.691  32.835  10.311
 8628W        W61524  22.832  17.944   0.574
 8629W        W61525  35.294  26.751   1.874
 8630W        W61526  22.816  11.734  10.070
 8631W        W61527   4.618  27.576   7.813
 8632W        W61528  22.375  31.983  10.215
 8633W        W61529  11.005  26.908   1.934
 8634W        W61530  18.870  23.504   8.317
 8635W        W61531  29.909   2.896  10.210
 8636W        W61532  19.601   6.975   1.212
 8637W        W61533  18.280  18.976   0.312
 8638W        W61534  19.481  28.664   7.876
 8639W        W61535   2.731   7.633   9.772
 8640W        W61536  15.841  12.969   8.540
 8641W        W61537   7.354  18.369   7.173
 8642W        W61538  13.076  23.676   1.677
 8643W        W61539  13.317   7.680   2.284
 8644W        W61540   5.866  16.062   2.242
 8645W        W61541  25.363   9.055   2.716
 8646W        W61542  24.859  17.747   1.303
 8647W        W61543  21.306  34.271   1.343
 8648W        W61544  19.079  21.270   0.782
 8649W        W61545  12.288  17.926   9.078
 8650W        W61546  26.312  21.567   8.923
 8651W        W61547  35.965  31.517   0.043
 8652W        W61548   1.892  17.734   3.312
 8653W        W61549   8.718   9.507   8.016
 8654W        W61550   4.971   9.721   9.825
 8655W        W61551  16.826   6.907   0.850
 8656W        W61552  22.722  13.282   1.220
 8657W        W61553  21.272  13.445  10.117
 8658W        W61554   2.195   4.042   1.941
 8659W        W61555   2.452  15.492   0.575
 8660W        W61556  27.633   7.526   1.265
 8661W        W61557   9.588  21.884   2.535
 8662W        W61558  33.811  26.117   9.026
 8663W        W61559  14.402   2.751   8.404
 8664W        W61560  13.965  29.192   1.023
 8665W        W61561  32.229  26.477   7.890
 8666W        W61562  20.327   5.077   8.949
 8667W        W61563  33.897  28.023   2.615
 8668W        W61564  15.752  12.828   2.693
 8669W        W61565  31.377  15.613   0.877
 8670W        W61566  23.740  10.467   0.675
 8671W        W61567  21.765  14.257   2.569
 8672W        W61568  21.087  35.909   8.109
 8673W        W61569  32.894  23.195   8.072
 8674W        W61570  26.732  21.866   9.625
 8675W        W61571  22.723  24.396   0.227
 8676W        W61572   5.892  18.842   2.373
 8677W        W61573  12.332   6.889   8.199
 8678W        W61574  30.455   6.819   1.944
 8679W        W61575  12.473  13.083   2.093
 8680W        W61576  23.556  31.222   2.547
 8681W        W61577  29.844  20.110   2.077
 8682W        W61578  26.666  11.634   8.075
 8683W        W61579  25.492   3.840   9.674
 8684W        W61580  24.155  35.088   2.339
 8685W        W61581  30.577  26.656   2.663
 8686W        W61582   4.146  15.762   0.237
 8687W        W61583  22.621  10.597   1.960
 8688W        W61584  31.569  20.652   8.250
 8689W        W61585  24.563  22.431   3.192
 8690W        W61586  21.700  20.367   8.895
 8691W        W61587  33.883  33.093   0.973
 8692W        W61588  29.672   7.716   7.816
 8693W        W61589  11.531   4.705  10.121
 8694W        W61590  32.556  12.032   1.368
 8695W        W61591  30.300  20.085   7.072
 8696W        W61592   6.028  24.434   8.014
 8697W        W61593  23.262  16.471   2.764
 8698W        W61594  29.494  28.027   3.456
 8699W        W61595  16.920  13.011   0.897
 8700W        W61596  15.869  29.928   2.642
 8701W        W61597  18.304  10.256   8.290
 8702W        W61598  29.894   9.042   9.580
 8703W        W61599   2.521  22.028   7.952
 8704W        W61600  10.821   6.476   1.789
 8705W        W61601  27.796  26.316   2.953
 8706W        W61602  28.559  24.796   2.805
 8707W        W61603  20.882  10.782   8.848
 8708W        W61604  21.141  15.876  10.151
 8709W        W61605  32.775   6.544  10.224
 8710W        W61606   4.791   1.043   9.352
 8711W        W61607  31.075  25.959   1.744
 8712W        W61608  30.919  12.271   2.345
 8713W        W61609  34.595   0.469   0.360
 8714W        W61610  11.700  34.162   2.879
 8715W        W61611   4.278   4.341   2.236
 8716W        W61612  11.011  11.411   1.611
 8717W        W61613  18.749  15.976   0.848
 8718W        W61614  13.159  25.730   1.939
 8719W        W61615  32.345   8.329   1.520
 8720W        W61616  32.840  11.566   9.912
 8721W        W61617  10.972  31.992   1.655
 8722W        W61618   6.237  23.134  10.174
 8723W        W61619  13.939  22.960   1.493
 8724W        W61620  28.241  17.708   1.306
 8725W        W61621  19.458   5.925   0.154
 8726W        W61622  17.478  11.324   0.054
 8727W        W61623   9.859  14.618   0.793
 8728W        W61624  25.530  11.500   3.157
 8729W        W61625  13.431  22.087   2.698
 8730W        W61626  35.557  21.896   0.744
 8731W        W61627   3.473  34.546   2.051
 8732W        W61628   0.816  25.241   0.753
 8733W        W61629   6.903  27.970   8.675
 8734W        W61630   0.861   3.403   9.501
 8735W        W61631  19.630  11.757   9.580
 8736W        W61632   0.491  27.227   2.783
 8737W        W61633  33.726  11.311  10.224
 8738W        W61634   4.074  26.632   8.311
 8739W        W61635  21.204  20.690   2.620
 8740W        W61636  21.677  29.992   8.455
 8741W        W61637  29.528  27.952   0.631
 8742W        W61638   3.557  26.324   1.339
 8743W        W61639  22.974  34.329   8.247
 8744W        W61640  16.789  25.690   9.849
 8745W        W61641  35.874   9.774   9.702
 8746W        W61642   9.190  25.243   0.710
 8747W        W61643  23.977  18.130   2.141
 8748W        W61644   8.526  27.569   2.543
 8749W        W61645  20.151   3.755   3.929
 8750W        W61646  22.505  33.009   8.880
 8751W        W61647  25.772  35.102   1.739
 8752W        W61648  21.504   0.145   3.285
 8753W        W61649  19.938  11.530   8.163
 8754W        W61650  23.118  20.970   0.396
 8755W        W61651   5.160  27.450   9.680
 8756W        W61652  32.998   8.927   1.187
 8757W        W61653  13.173   9.755   2.419
 8758W        W61654  23.771   0.368  10.038
 8759W        W61655   9.456  24.636   1.825
 8760W        W61656   8.257  20.376   0.704
 8761W        W61657   4.411  14.438   3.690
 8762W        W61658  14.721   2.839  10.130
 8763W        W61659  14.687  27.439   0.475
 8764W        W61660  31.595   4.071   9.646
 8765W        W61661  14.904  26.216   9.176
 8766W        W61662  20.923  17.181   2.584
 8767W        W61663  30.907   6.533   1.525
 8768W        W61664  29.489  20.027  10.029
 8769W        W61665   2.050  30.566   1.019
 8770W        W61666  34.288  19.156   0.192
 8771W        W61667  22.207  13.080  10.144
 8772W        W61668  23.216  27.253   8.806
 8773W        W61669  10.047  31.462   2.441
 8774W        W61670  12.745  21.258   9.360
 8775W        W61671  19.242  19.127   2.836
 8776W        W61672   9.455   9.140   2.103
 8777W        W61673  29.563   3.313   1.794
 8778W        W61674  18.932   4.273   0.402
 8779W        W61675  29.249  30.360   8.271
 8780W        W61676  26.668  10.727   1.208
 8781W        W61677  31.429  22.322   9.022
 8782W        W61678  13.719  31.601   2.598
 8783W        W61679   1.277  13.463   2.813
 8784W        W61680  32.739  31.807   1.574
 8785W        W61681  29.764   2.179   1.770
 8786W        W61682  17.935  17.283   3.064
 8787W        W61683  21.559  33.710   3.744
 8788W        W61684  35.264   6.499   9.864
 8789W        W61685  22.995  25.846  10.138
 8790W        W61686  34.841   0.576   1.318
 8791W        W61687  16.473   4.660   9.380
 8792W        W61688  13.215  26.201   7.922
 8793W        W61689  29.784  30.721   7.701
 8794W        W61690  28.662  25.061   3.198
 8795W        W61691  21.698  10.759   0.703
 8796W        W61692  15.217   7.813   9.807
 8797W        W61693  30.794  18.244   7.853
 8798W        W61694   8.182   1.038   0.208
 8799W        W61695   2.948  28.861   3.692
 8800W        W61696  31.408  26.503   0.218
 8801W        W61697  26.177  26.834   8.678
 8802W        W61698   4.452  34.385   2.592
 8803W        W61699  27.410   2.519   1.478
 8804W        W61700  21.413  18.753   0.739
 8805W        W61701   8.837  13.246   7.980
 8806W        W61702  15.802  26.065   9.499
 8807W        W61703   9.617   2.619   8.084
 8808W        W61704  17.728   8.282   2.182
 8809W        W61705   5.153   9.363   9.008
 8810W        W61706  14.144  17.016   1.196
 8811W        W61707   3.081  14.038   7.831
 8812W        W61708   0.129   9.688   0.738
 8813W        W61709  29.040   3.624   0.918
 8814W        W61710  23.946   2.747   2.052
 8815W        W61711   6.758  12.319   1.325
 8816W        W61712   3.733   2.720   1.655
 8817W        W61713  30.683   5.557   8.464
 8818W        W61714   0.871  12.954   7.957
 8819W        W61715  23.386  15.854   0.482
 8820W        W61716  17.623   0.861   1.261
 8821W        W61717  21.550  15.993   2.508
 8822W        W61718   1.165  20.366   2.800
 8823W        W61719  35.703  26.750   8.481
 8824W        W61720  18.809  17.683   1.665
 8825W        W61721  28.083  14.660  10.057
 8826W        W61722  20.573   4.670   7.692
 8827W        W61723  21.783   8.819   8.521
 8828W        W61724  18.819   1.082   2.267
 8829W        W61725  15.727  14.878   2.887
 8830W        W61726  11.726  27.910   0.381
 8831W        W61727   4.446  10.509   2.330
 8832W        W61728  10.199   2.626   2.147
 8833W        W61729  19.555   5.348   7.960
 8834W        W61730  16.884  35.189   8.040
 8835W        W61731   6.081  23.950  10.071
 8836W        W61732  32.420  34.926   7.314
 8837W        W61733  20.110   2.705   7.537
 8838W        W61734  11.787  26.394   0.202
 8839W        W61735  28.802   7.567   9.826
 8840W        W61736  20.043  34.333   9.566
 8841W        W61737  25.203   3.514   1.321
 8842W        W61738  20.470  29.773   3.718
 8843W        W61739  28.059  15.986   1.248
 8844W        W61740  35.293   4.614   7.915
 8845W        W61741   8.846  10.395   1.625
 8846W        W61742   0.411  16.812  10.186
 8847W        W61743  17.577  17.912   1.009
 8848W        W61744  20.249  12.819   2.382
 8849W        W61745   4.649  13.955   0.352
 8850W        W61746   5.240  14.929   9.498
 8851W        W61747   9.169  18.600   3.341
 8852W        W61748  32.056   1.803   8.462
 8853W        W61749  17.244  18.935   9.124
 8854W        W61750  23.684  16.681   1.079
 8855W        W61751  21.531  28.048   1.008
 8856W        W61752   9.249   7.282   0.586
 8857W        W61753  25.998  29.261   9.354
 8858W        W61754  14.870  14.571   8.889
 8859W        W61755  13.060   4.323   8.526
 8860W        W61756  31.969   1.656   1.921
 8861W        W61757   2.597  24.709   2.247
 8862W        W61758   2.178  34.072   1.072
 8863W        W61759  17.225   0.612   1.166
 8864W        W61760  35.308   3.707   1.163
 8865W        W61761  35.576  12.190   0.156
 8866W        W61762  19.468  34.965   7.824
 8867W        W61763  18.908  28.352   0.045
 8868W        W61764  17.907  22.796   0.805
 8869W        W61765   6.415  29.186  10.112
 8870W        W61766  23.148  22.848   0.238
 8871W        W61767  21.294  29.413   9.110
 8872W        W61768   5.101   0.766   7.521
 8873W        W61769   5.789  18.361   0.574
 8874W        W61770  23.108  26.939   3.276
 8875W        W61771  22.752  19.424   8.954
 8876W        W61772  27.785  12.871   1.025
 8877W        W61773  25.765  22.088   0.548
 8878W        W61774  22.480  35.981   1.488
 8879W        W61775  28.800  18.529   0.977
 8880W        W61776  20.247  11.045   1.709
 8881W        W61777  35.723   5.587   7.560
 8882W        W61778  28.710  28.071   7.812
 8883W        W61779   0.001  30.316   7.919
 8884W        W61780  12.646   8.352   2.627
 8885W        W61781  19.585  23.129   2.622
 8886W        W61782  19.782  34.542   7.900
 8887W        W61783   1.670  25.091   0.590
 8888W        W61784  29.813   3.609   1.333
 8889W        W61785  24.808  21.190   8.965
 8890W        W61786  19.887  27.537   3.064
 8891W        W61787  29.292  29.311   2.197
 8892W        W61788  28.389  11.894   2.631
 8893W        W61789   8.622  11.475   9.956
 8894W        W61790  35.590  16.267   3.330
 8895W        W61791  30.029  23.800   7.322
 8896W        W61792  20.505  16.553   8.620
 8897W        W61793   3.509  18.310  10.179
 8898W        W61794   2.136  35.347   0.317
 8899W        W61795  35.542  34.640  10.219
 8900W        W61796   3.800  17.821   3.659
 8901W        W61797  33.440   4.532   9.864
 8902W        W61798  25.606   7.540   7.822
 8903W        W61799  25.339  26.538   9.160
 8904W        W61800  11.156  33.654   2.071
 8905W        W61801   0.115  24.504   9.935
 8906W        W61802  10.567  35.520   7.659
 8907W        W61803   5.365  25.869   1.513
 8908W        W61804  15.060  29.296   0.011
 8909W        W61805  23.241  19.754  10.161
 8910W        W61806  35.937  10.669   1.641
 8911W        W61807  14.993  31.530   3.090
 8912W        W61808  19.763  16.834   2.525
 8913W        W61809  34.403  22.957   2.938
 8914W        W61810  33.386  13.889   3.366
 8915W        W61811  33.926  10.183   2.680
 8916W        W61812   3.571   9.114   1.262
 8917W        W61813  15.729  27.875   9.573
 8918W        W61814   5.823  21.119   8.079
 8919W        W61815   8.276   9.114  10.249
 8920W        W61816  23.622  24.875   1.334
 8921W        W61817  22.612   5.039   7.518
 8922W        W61818   6.848  21.739   1.570
 8923W        W61819  34.144  15.765   2.508
 8924W        W61820  28.484  14.373   8.634
 8925W        W61821   1.750  33.199   2.421
 8926W        W61822  23.185  30.919   2.384
 8927W        W61823   6.077  30.218   3.252
 8928W        W61824  31.636   8.847   7.323
 8929W        W61825  13.090  19.485   0.845
 8930W        W61826   0.567   6.520   3.164
 8931W        W61827  11.221  19.889   8.611
 8932W        W61828  14.619  10.198   9.520
 8933W        W61829   2.364  27.535   0.684
 8934W        W61830  10.128  23.599   7.725
 8935W        W61831  19.389   5.567   8.390
 8936W        W61832  24.545  32.675   1.488
 8937W        W61833   7.489  31.843   0.168
 8938W        W61834  22.075   7.219   3.361
 8939W        W61835   9.569  28.463   0.683
 8940W        W61836  26.320   5.655   6.995
 8941W        W61837  32.567  19.799   0.788
 8942W        W61838  27.661  14.311   0.784
 8943W        W61839  13.291  28.201   7.630
 8944W        W61840  35.717  29.358   9.343
 8945W        W61841   0.138   8.928   8.621
 8946W        W61842  25.663   1.089   8.457
 8947W        W61843   1.574  32.441   8.321
 8948W        W61844  23.450  20.797   9.597
 8949W        W61845   3.802  16.581  10.287
 8950W        W61846  13.697  30.408   3.201
 8951W        W61847   8.874   2.191   2.791
 8952W        W61848   9.354  13.468   0.112
 8953W        W61849  18.974   4.717   8.341
 8954W        W61850  20.677   5.665   0.962
 8955W        W61851  26.605   4.046   7.492
 8956W        W61852  21.463  14.705  10.120
 8957W        W61853   7.222  32.121   8.912
 8958W        W61854   3.222  24.573   2.428
 8959W        W61855  34.121  26.686   2.905
 8960W        W61856   3.507  14.069   0.055
 8961W        W61857   9.185   6.912   9.818
 8962W        W61858   9.582   3.728   2.913
 8963W        W61859  19.704  14.790   7.935
 8964W        W61860  30.802  10.180   0.263
 8965W        W61861   1.596  35.266   2.695
 8966W        W61862  26.871  35.676   8.209
 8967W        W61863   9.572  25.743   8.901
 8968W        W61864   7.448  17.625   2.020
 8969W        W61865   4.847  28.245   0.938
 8970W        W61866   7.122  30.656   1.842
 8971W        W61867  13.382   2.635   2.475
 8972W        W61868  30.941  13.060   0.710
 8973W        W61869  35.924   4.496   1.723
 8974W        W61870  23.203  35.601   1.180
 8975W        W61871  35.496   4.186   9.918
 8976W        W61872   9.923   9.024   2.866
 8977W        W61873  34.238   4.696   1.204
 8978W        W61874   0.742  28.700   2.685
 8979W        W61875  14.128  33.483   0.998
 8980W        W61876  17.997   2.102   2.634
 8981W        W61877  10.965  34.433   1.484
 8982W        W61878  19.399  24.131   3.815
 8983W        W61879  23.240  33.569   1.816
 8984W        W61880   3.987  32.820   1.610
 8985W        W61881  34.591   2.319   1.089
 8986W        W61882  30.506  23.898   0.419
 8987W        W61883  12.626  31.228   9.325
 8988W        W61884   2.595  20.641   0.922
 8989W        W61885  15.635  28.530   9.984
 8990W        W61886   5.224  28.500   8.837
 8991W        W61887  35.986  13.957   3.071
 8992W        W61888   9.745  16.438   2.076
 8993W        W61889  21.791  31.008   9.541
 8994W        W61890  33.174   5.205   9.489
 8995W        W61891   5.919   0.721   1.183
 8996W        W61892  12.364  15.950   0.253
 8997W        W61893  35.861  35.627   8.760
 8998W        W61894  22.758  18.694   0.157
 8999W        W61895   4.765  11.709   9.547
 9000W        W61896  22.364   7.937   9.673
 9001W        W61897  21.255   4.273   2.679
 9002W        W61898  13.309  12.675   2.419
 9003W        W61899  29.559  27.628   1.756
 9004W        W61900   9.143  29.452   9.792
 9005W        W61901  22.396  20.516   7.839
 9006W        W61902  20.782  15.394   1.448
 9007W        W61903  23.092  24.137   0.579
 9008W        W61904  15.043  24.919   7.774
 9009W        W61905   9.336  29.064   0.179
 9010W        W61906  35.456  30.241   9.822
 9011W        W61907  26.167   3.805   8.340
 9012W        W61908  22.132  23.268   3.631
 9013W        W61909   8.692  27.285   9.552
 9014W        W61910  18.271  13.695   0.877
 9015W        W61911  12.521  15.814   1.158
 9016W        W61912  10.890  16.894   0.936
 9017W        W61913  35.780   4.978   8.280
 9018W        W61914   8.522  16.720   2.364
 9019W        W61915  29.278   8.347   2.743
 9020W        W61916  12.594   1.455   2.263
 9021W        W61917  19.432   5.613   9.633
 9022W        W61918  21.189   5.163  10.015
 9023W        W61919  27.982   0.818   9.594
 9024W        W61920  30.054  15.765   1.369
 9025W        W61921  24.417  17.016   9.250
 9026W        W61922   3.793  10.341   8.306
 9027W        W61923  11.913   3.261   8.270
 9028W        W61924  19.930  26.402   0.561
 9029W        W61925   2.037  21.929   0.041
 9030W        W61926   2.871   0.285   1.482
 9031W        W61927  31.232  17.645   8.297
 9032W        W61928  19.795  33.153   2.181
 9033W        W61929  19.389  12.126   1.013
 9034W        W61930  11.055  12.124   9.516
 9035W        W61931  27.556  30.851   1.546
 9036W        W61932  23.568   2.794   9.424
 9037W        W61933  24.910  18.017   9.273
 9038W        W61934  32.292  25.979   3.118
 9039W        W61935  17.752  26.332   0.477
 9040W        W61936  33.687  29.504   1.529
 9041W        W61937   2.450  30.971   1.386
 9042W        W61938  24.326   0.297   8.165
 9043W        W61939  25.104  16.121   2.407
 9044W        W61940  31.467  16.753   2.189
 9045W        W61941  17.759  10.203   2.748
 9046W        W61942  29.539  23.849   8.163
 9047W        W61943   3.573   9.268   9.974
 9048W        W61944   6.006  30.859   9.942
 9049W        W61945   3.800  23.757   0.652
 9050W        W61946  15.733   0.126   1.939
 9051W        W61947   5.156  30.093   9.772
 9052W        W61948  35.544   4.269   2.502
 9053W        W61949  12.651  28.392   8.757
 9054W        W61950  17.724   7.342  10.107
 9055W        W61951  27.287  20.984   7.865
 9056W        W61952  24.349   6.024   7.381
 9057W        W61953  29.624   2.421   0.960
 9058W        W61954   6.700  18.072   2.727
 9059W        W61955  13.581  13.956   7.779
 9060W        W61956  11.702   0.765  10.092
 9061W        W61957   8.816   6.078  10.027
 9062W        W61958  14.303  28.265   1.636
 9063W        W61959   0.046  11.675   9.979
 9064W        W61960   8.534  30.637   9.984
 9065W        W61961  17.929  35.579   0.308
 9066W        W61962  12.613   6.139   7.241
 9067W        W61963   7.704  33.238   1.456
 9068W        W61964  31.627  26.695   2.121
 9069W        W61965   0.527   8.654   1.725
 9070W        W61966   2.253  19.332   8.362
 9071W        W61967  29.691  35.685   0.427
 9072W        W61968  21.746   3.708   9.461
 9073W        W61969  34.196  13.015   8.525
 9074W        W61970  23.124  20.698   9.096
 9075W        W61971  30.366  23.596   0.092
 9076W        W61972  30.856  31.724   2.503
 9077W        W61973   9.568   4.658   0.411
 9078W        W61974   0.391  25.792   2.708
 9079W        W61975  16.402   5.358   9.921
 9080W        W61976  14.403  22.440   8.820
 9081W        W61977  21.046   8.647   9.186
 9082W        W61978  29.108   7.529   2.513
 9083W        W61979  26.292  32.227   9.059
 9084W        W61980   8.266   6.995   0.213
 9085W        W61981   5.539  24.198   9.639
 9086W        W61982   6.093  18.400   6.993
 9087W        W61983  25.648  10.226   1.173
 9088W        W61984  22.500   7.166   7.450
 9089W        W61985  12.570  23.759   0.077
 9090W        W61986   3.663  27.090   1.786
 9091W        W61987  34.846   9.636  10.161
 9092W        W61988  17.035   9.945   1.739
 9093W        W61989   6.119  19.226   0.551
 9094W        W61990  32.942  31.023   7.751
 9095W        W61991  15.466   0.623   7.051
 9096W        W61992  30.694  30.299   9.469
 9097W        W61993  23.407  16.185   3.262
 9098W        W61994  10.969  14.139   2.369
 9099W        W61995  23.155   6.679   0.508
 9100W        W61996  25.398  22.773   2.150
 9101W        W61997   2.072  24.055   2.823
 9102W        W61998  14.993  17.205   1.634
 9103W        W61999  25.437  29.476   9.685
 9104W        W62000  12.911  32.737  10.241
 9105W        W62001  12.477  27.964   8.994
 9106W        W62002  14.414   5.629   1.234
 9107W        W62003  34.823  21.502   2.782
 9108W        W62004   4.934  10.291   1.505
 9109W        W62005   1.292  32.004   2.789
 9110W        W62006   7.135  33.357   9.263
 9111W        W62007   4.710   9.095   1.081
 9112W        W62008  11.963  31.345   8.385
 9113W        W62009  32.758  22.687   3.042
 9114W        W62010  27.200  24.513   2.348
 9115W        W62011  21.940  28.112   3.083
 9116W        W62012   3.456  12.531   0.773
 9117W        W62013  10.040  26.578   1.809
 9118W        W62014  24.791  23.931   9.666
 9119W        W62015  12.006   7.536   8.309
 9120W        W62016   9.752  12.879   1.769
 9121W        W62017   9.380  34.102   2.148
 9122W        W62018  30.731   3.173   8.486
 9123W        W62019  19.403  27.432   3.221
 9124W        W62020   1.058  14.190   9.905
 9125W        W62021  12.157  19.574   0.584
 9126W        W62022  15.302   6.183   2.303
 9127W        W62023   5.598  32.958   7.731
 9128W        W62024   0.643   7.806   8.721
 9129W        W62025   8.232   5.957   1.596
 9130W        W62026   6.885   4.911  10.038
 9131W        W62027  32.203  32.966   0.144
 9132W        W62028   1.801  11.491   0.416
 9133W        W62029  14.578   2.721   0.696
 9134W        W62030  14.620  16.729   9.459
 9135W        W62031  16.472  15.206   9.148
 9136W        W62032  33.054   2.183   7.067
 9137W        W62033   3.506  12.946   9.568
 9138W        W62034  19.783  32.929   0.590
 9139W        W62035   1.206   0.814   3.627
 9140W        W62036  27.031  33.071   9.533
 9141W        W62037  10.749   7.357   7.222
 9142W        W62038  35.038   9.905   1.593
 9143W        W62039   7.579  10.513   9.744
 9144W        W62040  31.120  22.439   2.665
 9145W        W62041  27.417  31.872   9.833
 9146W        W62042   5.954   5.747   0.042
 9147W        W62043  21.057  15.274   7.924
 9148W        W62044  34.425  29.706   9.481
 9149W        W62045   5.666  34.539   2.722
 9150W        W62046  32.988  23.648   8.716
 9151W        W62047  12.205  14.091   1.745
 9152W        W62048  29.612  34.223   9.955
 9153W        W62049   2.150  30.492   0.516
 9154W        W62050  22.704  12.895  10.127
 9155W        W62051  16.210  25.313   9.689
 9156W        W62052  18.771  24.920   3.981
 9157W        W62053   5.533  23.676   9.623
 9158W        W62054  25.313  24.946   6.858
 9159W        W62055  19.812  34.898   0.963
 9160W        W62056   4.401  26.578   8.661
 9161W        W62057  15.822  10.459   1.174
 9162W        W62058  33.325  25.464   3.190
 9163W        W62059   7.403   2.427   1.180
 9164W        W62060  27.729  29.121   7.080
 9165W        W62061  12.272  26.437   0.487
 9166W        W62062   2.244  16.788   1.171
 9167W        W62063   9.933  30.941   8.151
 9168W        W62064  25.340   1.289   9.285
 9169W        W62065  27.917  16.787   9.402
 9170W        W62066   7.484   6.582   0.284
 9171W        W62067  31.726  21.706  10.056
 9172W        W62068   6.475   9.625   1.713
 9173W        W62069   2.653  11.808   0.086
 9174W        W62070   9.075  14.057   9.312
 9175W        W62071  25.284   6.597   7.579
 9176W        W62072  13.805  12.179   3.457
 9177W        W62073  34.565   1.478   8.274
 9178W        W62074  20.809  20.764   0.441
 9179W        W62075  27.629  11.297   2.784
 9180W        W62076  13.251  21.702   7.309
 9181W        W62077  15.851  27.516   2.069
 9182W        W62078  11.429  18.170  10.033
 9183W        W62079  10.791  33.102   9.838
 9184W        W62080  13.655  24.310   1.460
 9185W        W62081  13.445  33.440   2.095
 9186W        W62082  24.885  34.277   8.507
 9187W        W62083   5.477  29.335   1.726
 9188W        W62084  34.467  18.824   7.910
 9189W        W62085  16.378  23.260   0.155
 9190W        W62086  10.859   2.218   2.430
 9191W        W62087   8.757  32.184   8.004
 9192W        W62088  26.256  31.927   1.317
 9193W        W62089  21.999  17.870   1.720
 9194W        W62090  29.473  17.298  10.231
 9195W        W62091   3.796  28.395   9.920
 9196W        W62092  32.087  23.822   9.024
 9197W        W62093  22.423  15.152   9.766
 9198W        W62094  34.497  22.816   2.367
 9199W        W62095  23.098   5.437   9.529
 9200W        W62096  19.384   8.840   8.384
 9201W        W62097  13.848  30.636   9.865
 9202W        W62098   7.390  23.449   2.057
 9203W        W62099  12.867  34.389   9.706
 9204W        W62100  16.526  29.102   9.128
 9205W        W62101  21.144  22.640   3.717
 9206W        W62102  24.429   0.490   0.758
 9207W        W62103  31.350   4.092   2.820
 9208W        W62104  17.102   9.076   0.239
 9209W        W62105   2.199   6.719   2.962
 9210W        W62106  29.386  20.929   0.963
 9211W        W62107  22.460  15.061   9.273
 9212W        W62108  22.926  17.700   2.687
 9213W        W62109  20.956  33.054   2.386
 9214W        W62110  15.922  29.042   7.716
 9215W        W62111   2.120  30.528   0.021
 9216W        W62112   4.444  21.546   8.182
 9217W        W62113  23.014   8.877   0.598
 9218W        W62114   5.452  33.658   3.163
 9219W        W62115  35.537  12.779   8.766
 9220W        W62116  29.963  19.953   2.806
 9221W        W62117  32.235  19.912   0.392
 9222W        W62118   0.791   1.233   7.641
 9223W        W62119  26.758  12.578   1.478
 9224W        W62120  32.820   7.747   9.979
 9225W        W62121  20.904   0.224   9.126
 9226W        W62122   3.127  18.089   0.176
 9227W        W62123  26.014  25.298   2.242
 9228W        W62124  13.554   6.478   8.712
 9229W        W62125   8.167  31.760   8.719
 9230W        W62126  25.144  11.777   9.062
 9231W        W62127  28.563   7.785   9.373
 9232W        W62128   6.827  14.783   0.009
 9233W        W62129  23.259  23.483   1.081
 9234W        W62130  13.358  35.849   3.045
 9235W        W62131  23.060  15.448   0.203
 9236W        W62132  28.036  29.359   1.333
 9237W        W62133  14.201   9.928   7.544
 9238W        W62134   9.167  30.093   2.201
 9239W        W62135   9.917  23.929   8.572
 9240W        W62136   9.740  31.150   3.246
 9241W        W62137  34.819  16.280   4.065
 9242W        W62138   7.689   6.132   0.490
 9243W        W62139  28.436   3.117   3.307
 9244W        W62140  17.570  12.928   2.420
 9245W        W62141   7.448  33.916   0.753
 9246W        W62142  29.989  29.229   0.607
 9247W        W62143  29.283  14.665   9.200
 9248W        W62144   6.743  34.409   8.775
 9249W        W62145   8.294  30.599   2.178
 9250W        W62146  17.398  24.732   1.075
 9251W        W62147  25.363  20.177   0.467
 9252W        W62148  13.358   9.195   9.919
 9253W        W62149  20.758  31.856   2.714
 9254W        W62150  14.463  21.125   9.148
 9255W        W62151  10.647  19.134   9.738
 9256W        W62152   5.488  19.789   2.222
 9257W        W62153  13.943  31.616   2.186
 9258W        W62154   4.521  21.706   8.672
 9259W        W62155   4.172  27.311   9.188
 9260W        W62156   8.541  33.793   2.410
 9261W        W62157  34.658  12.441   0.902
 9262W        W62158   9.778   0.838   8.840
 9263W        W62159   4.050   6.740   7.753
 9264W        W62160  21.510  27.807  10.331
 9265W        W62161  10.151  28.365   9.170
 9266W        W62162  12.584   6.300   1.660
 9267W        W62163  14.949   1.409   1.100
 9268W        W62164  18.556  20.948   2.186
 9269W        W62165   9.501  20.479   1.979
 9270W        W62166   1.505  18.228   1.844
 9271W        W62167   4.570  31.345   1.659
 9272W        W62168  20.485   1.330   0.276
 9273W        W62169  14.921  18.735   9.908
 9274W        W62170   9.029   1.665   2.681
 9275W        W62171  26.902   3.936   0.483
 9276W        W62172   0.492  31.007   1.672
 9277W        W62173  17.314  35.129   8.710
 9278W        W62174  11.537   7.361   2.435
 9279W        W62175  28.977  22.532   7.437
 9280W        W62176  34.480  11.784   1.672
 9281W        W62177   2.277  20.669   3.073
 9282W        W62178  21.900  26.276   1.369
 9283W        W62179  17.860  34.018   2.870
 9284W        W62180  30.467  33.702   8.941
 9285W        W62181  26.224  23.373   0.910
 9286W        W62182  34.589   2.060   0.687
 9287W        W62183  26.502  11.818   9.492
 9288W        W62184  35.548  11.430   1.370
 9289W        W62185  11.217  30.603  10.010
 9290W        W62186   4.020  27.572   0.142
 9291W        W62187  20.198  17.906   9.073
 9292W        W62188   7.624  28.979   1.506
 9293W        W62189  24.151  21.566   0.539
 9294W        W62190   4.074   2.871   1.159
 9295W        W62191  18.936  31.807   3.000
 9296W        W62192  18.378  14.476   9.952
 9297W        W62193   6.488  17.319   0.808
 9298W        W62194  28.074   3.847  10.202
 9299W        W62195  13.299  26.771   7.898
 9300W        W62196   4.141  23.949   8.444
 9301W        W62197   1.027  12.659   0.072
 9302W        W62198  20.481  17.609   1.725
 9303W        W62199  13.536  11.853   9.243
 9304W        W62200   0.007  21.070   0.780
 9305W        W62201  33.726   3.644   3.186
 9306W        W62202   9.297  13.247   9.948
 9307W        W62203  26.731  18.565   7.631
 9308W        W62204  26.183   3.897   1.949
 9309W        W62205  32.820  32.058   1.146
 9310W        W62206  28.009  15.173   0.986
 9311W        W62207  17.605  33.269   8.695
 9312W        W62208  13.925  25.576   2.188
 9313W        W62209  19.541  26.271   0.130
 9314W        W62210  30.828  20.225   0.308
 9315W        W62211  10.003  25.155   1.336
 9316W        W62212  25.626  16.740   1.022
 9317W        W62213  20.666  21.036   4.042
 9318W        W62214  30.627  32.869   3.237
 9319W        W62215  22.272  24.798   1.381
 9320W        W62216  28.240  30.327   1.555
 9321W        W62217  22.616  13.132   2.090
 9322W        W62218  34.441  31.373  10.298
 9323W        W62219   9.470  18.518   2.401
 9324W        W62220   8.580  17.432   8.229
 9325W        W62221  21.720   2.916   0.417
 9326W        W62222   2.949  26.595   7.887
 9327W        W62223  15.152  35.785   0.740
 9328W        W62224   8.965  17.940   7.701
 9329W        W62225  35.595  17.999   2.348
 9330W        W62226  19.276   5.309   0.492
 9331W        W62227   9.831  10.557   3.301
 9332W        W62228   9.426  15.848   1.134
 9333W        W62229  31.967  15.940   2.114
 9334W        W62230  23.541  16.963   2.090
 9335W        W62231  12.648  18.290   7.109
 9336W        W62232  21.342  18.622   8.580
 9337W        W62233  10.530   7.787   7.646
 9338W        W62234  29.947  29.350   1.603
 9339W        W62235  33.304   6.470   1.247
 9340W        W62236  30.768  32.521   8.050
 9341W        W62237  12.570   7.880   9.634
 9342W        W62238  20.043  10.936   8.034
 9343W        W62239  23.063  25.718   1.506
 9344W        W62240  17.865  35.931   2.634
 9345W        W62241   2.653   8.547   8.270
 9346W        W62242  15.139  22.945   8.494
 9347W        W62243   6.989   6.165   2.081
 9348W        W62244   2.734  16.110   8.083
 9349W        W62245   1.178   7.637   7.321
 9350W        W62246  35.759  27.152   8.991
 9351W        W62247  16.354  34.701   7.661
 9352W        W62248   4.509  29.359  10.157
 9353W        W62249  25.675  18.838   0.307
 9354W        W62250  14.400  35.177   0.485
 9355W        W62251   0.028  24.210   1.642
 9356W        W62252  14.948  33.833   8.954
 9357W        W62253   1.331  11.075   2.508
 9358W        W62254  11.965  29.540   9.017
 9359W        W62255  19.598   9.320   8.536
 9360W        W62256   9.813   1.749   0.253
 9361W        W62257  22.645  28.891   9.559
 9362W        W62258   6.054  25.338   8.352
 9363W        W62259  21.239  20.501   8.545
 9364W        W62260  11.125   6.249   2.542
 9365W        W62261  20.387  22.069   2.633
 9366W        W62262  33.621   5.361   0.883
 9367W        W62263  20.983  24.306   2.366
 9368W        W62264  20.693  17.472  10.320
 9369W        W62265  18.293  27.093   2.325
 9370W        W62266  19.037  25.451   3.117
 9371W        W62267   5.616  15.241   1.091
 9372W        W62268   3.150   2.397   2.296
 9373W        W62269  32.008  21.933   0.086
 9374W        W62270  23.921  16.273   0.149
 9375W        W62271  34.556  22.617   1.093
 9376W        W62272  10.901  31.528   1.360
 9377W        W62273  14.291   0.053   9.025
 9378W        W62274   2.395   0.503   9.888
 9379W        W62275   0.981  25.213   1.241
 9380W        W62276   9.142  23.481   7.236
 9381W        W62277   5.165  32.938   1.037
 9382W        W62278  10.755  11.105   8.516
 9383W        W62279  15.746  25.971   0.957
 9384W        W62280  21.192   5.792   9.552
 9385W        W62281  16.493  35.464   7.692
 9386W        W62282   7.090   6.025   1.038
 9387W        W62283  14.166  24.369   8.204
 9388W        W62284  35.790  34.395   1.874
 9389W        W62285   5.362   7.458   9.147
 9390W        W62286  31.275  14.144   7.704
 9391W        W62287  10.896  20.592   7.518
 9392W        W62288   1.104  14.657   3.080
 9393W        W62289  27.734   9.896   1.906
 9394W        W62290  17.445   7.331   2.650
 9395W        W62291  31.421   9.460   0.603
 9396W        W62292  20.898   5.405   8.437
 9397W        W62293  23.425  23.015   8.670
 9398W        W62294  27.940  19.045   9.148
 9399W        W62295   4.471   4.794   2.301
 9400W        W62296  26.038  18.605   9.272
 9401W        W62297  32.295  23.412   9.882
 9402W        W62298   1.099  31.334   9.054
 9403W        W62299  10.774  33.972   2.365
 9404W        W62300   6.722  12.843   1.266
 9405W        W62301   0.052  22.185   8.522
 9406W        W62302  20.012  18.880   3.078
 9407W        W62303  11.904  29.903   1.698
 9408W        W62304  18.557   7.296   7.525
 9409W        W62305  15.903   9.598   0.672
 9410W        W62306  30.113   8.911   1.509
 9411W        W62307  28.585  32.473   7.668
 9412W        W62308  35.935  35.390   9.821
 9413W        W62309  10.217  21.753   0.613
 9414W        W62310  23.314  23.824   8.680
 9415W        W62311  29.033  28.141   9.450
 9416W        W62312  35.769   4.636   9.262
 9417W        W62313  35.381  24.957   9.839
 9418W        W62314  15.410   6.862   8.072
 9419W        W62315  21.478   3.210   9.624
 9420W        W62316   2.791   5.964   0.120
 9421W        W62317  31.569  19.853   2.945
 9422W        W62318   0.719  13.499   8.018
 9423W        W62319  22.825  10.771   2.350
 9424W        W62320  14.948  23.663   1.248
 9425W        W62321  24.297  18.847   7.790
 9426W        W62322  28.715  29.947   2.831
 9427W        W62323  34.737   5.009   2.611
 9428W        W62324   2.276   0.430   2.350
 9429W        W62325  33.377  32.245   8.289
 9430W        W62326   2.713  12.113   7.979
 9431W        W62327  31.817  32.716   2.210
 9432W        W62328   0.170   9.447   1.531
 9433W        W62329  22.915  15.832  10.056
 9434W        W62330   7.950  14.936   3.810
 9435W        W62331  15.521  29.540  10.117
 9436W        W62332  29.440  26.597   1.079
 9437W        W62333  22.891  11.257   1.332
 9438W        W62334  14.332  34.234   3.592
 9439W        W62335  12.094   8.285   9.011
 9440W        W62336  29.196   8.536   1.758
 9441W        W62337  24.681  17.029   2.669
 9442W        W62338   7.918  35.729   0.456
 9443W        W62339  35.747  32.551   1.223
 9444W        W62340  26.286   3.104   3.365
 9445W        W62341   3.998   8.712   2.972
 9446W        W62342  32.881  10.567   2.058
 9447W        W62343  29.598  21.231   1.287
 9448W        W62344   2.648  10.772   9.876
 9449W        W62345  29.954   4.708   9.138
 9450W        W62346  21.311  28.087   3.214
 9451W        W62347   6.730   2.502   9.587
 9452W        W62348  30.385  14.112   2.384
 9453W        W62349   3.670  26.869   8.140
 9454W        W62350   0.282  17.661   3.096
 9455W        W62351  20.174  24.868   9.137
 9456W        W62352  18.280   1.109   0.475
 9457W        W62353  13.272  32.411   3.031
 9458W        W62354  16.668   7.706   8.353
 9459W        W62355  30.923   5.696   8.079
 9460W        W62356   3.938  19.057   1.149
 9461W        W62357   4.247  32.687   7.757
 9462W        W62358  21.284   4.955   0.113
 9463W        W62359   3.467  10.603   3.104
 9464W        W62360  31.300  11.850   9.835
 9465W        W62361  23.537  17.798   9.025
 9466W        W62362  13.966   2.761   0.147
 9467W        W62363   3.776   1.978  10.266
 9468W        W62364  35.317  11.034   3.205
 9469W        W62365   5.344  28.249   0.621
 9470W        W62366   6.626  32.225   1.891
 9471W        W62367  34.487  27.281   7.253
 9472W        W62368   7.351  11.873   9.233
 9473W        W62369  34.852  35.676   1.291
 9474W        W62370  32.333  12.567   3.614
 9475W        W62371  33.422  28.818   0.689
 9476W        W62372  25.262  15.306  10.307
 9477W        W62373  14.833  11.800  10.059
 9478W        W62374  18.301  11.337   2.365
 9479W        W62375  32.899  29.241   1.785
 9480W        W62376  10.125  18.145   1.119
 9481W        W62377   0.136  21.028   2.027
 9482W        W62378  13.453  34.703   8.492
 9483W        W62379  22.798   4.793   8.881
 9484W        W62380  10.756  11.067  10.270
 9485W        W62381  17.641  11.833   3.044
 9486W        W62382  15.508   7.970   9.017
 9487W        W62383   5.534  12.490   9.089
 9488W        W62384  17.452  10.833   2.018
 9489W        W62385  29.693  13.486   2.982
 9490W        W62386  10.425  31.937   3.757
 9491W        W62387  31.326  10.269   9.801
 9492W        W62388   9.826  21.882   1.243
 9493W        W62389  20.208  18.210   7.683
 9494W        W62390  15.914  29.317   8.495
 9495W        W62391   1.456  27.362   0.562
 9496W        W62392   7.696  24.513   8.137
 9497W        W62393   7.676  32.330   0.256
 9498W        W62394  32.737  35.500   1.563
 9499W        W62395  34.882  11.558   8.894
 9500W        W62396  13.166  24.353   9.226
 9501W        W62397  30.676  28.043   2.716
 9502W        W62398  17.679  31.158   9.092
 9503W        W62399  11.236  23.328   1.096
 9504W        W62400  35.102   6.264   8.845
 9505W        W62401  22.035  26.875   2.089
 9506W        W62402  32.060  27.619   3.374
 9507W        W62403  21.955  12.689   9.324
 9508W        W62404  15.393  32.188   0.243
 9509W        W62405  28.959  27.795   8.198
 9510W        W62406  24.227  20.945   9.862
 9511W        W62407  34.508  32.423   9.115
 9512W        W62408  25.563  26.457   2.170
 9513W        W62409  30.040  33.313   2.594
 9514W        W62410  34.837  27.554   1.023
 9515W        W62411  35.635   3.671   8.974
 9516W        W62412  34.019   8.705   9.907
 9517W        W62413  21.744  19.980   3.197
 9518W        W62414   7.544  28.498   7.375
 9519W        W62415  31.369  19.396   2.078
 9520W        W62416   8.635  17.971   8.128
 9521W        W62417  24.137  31.632   0.469
 9522W        W62418  34.582  10.797   2.280
 9523W        W62419   3.082  19.217   7.798
 9524W        W62420   9.729  14.375  10.325
 9525W        W62421  10.101  22.413   1.114
 9526W        W62422   0.248  25.349   3.279
 9527W        W62423   2.323  15.017   3.884
 9528W        W62424   1.776  11.015   2.780
 9529W        W62425  30.145  18.302   0.421
 9530W        W62426  20.720   4.012   3.538
 9531W        W62427  29.535  18.209   1.916
 9532W        W62428  25.074   2.100   8.801
 9533W        W62429  27.859  24.471   7.774
 9534W        W62430  16.100   5.729   7.714
 9535W        W62431  34.168  22.309   1.040
 9536W        W62432  11.907   6.630   1.939
 9537W        W62433  28.955  35.512   8.146
 9538W        W62434   0.092   1.506   9.331
 9539W        W62435   8.226  33.501   0.328
 9540W        W62436   1.318  20.702   0.022
 9541W        W62437  16.384  31.931   1.736
 9542W        W62438   7.263  10.031   9.787
 9543W        W62439  29.538   5.795   2.226
 9544W        W62440  12.476  17.358   3.070
 9545W        W62441  24.418  22.825   8.446
 9546W        W62442  31.276  34.967   1.966
 9547W        W62443   4.115  11.755   2.814
 9548W        W62444  16.203  33.658   1.209
 9549W        W62445   1.102  17.603   7.836
 9550W        W62446  24.248   4.893   0.777
 9551W        W62447   9.703  17.662   2.583
 9552W        W62448  29.949  10.413   7.664
 9553W        W62449  17.753  35.058   8.551
 9554W        W62450  16.136  21.720   3.017
 9555W        W62451  15.996   8.292   7.618
 9556W        W62452  25.864  27.157  10.258
 9557W        W62453  12.811  11.855   8.574
 9558W        W62454  17.200  31.110   7.743
 9559W        W62455  24.719   5.003   0.990
 9560W        W62456   4.575  23.024   1.143
 9561W        W62457  12.497   0.651   7.987
 9562W        W62458   4.035  16.109   2.528
 9563W        W62459   2.236  11.445   0.700
 9564W        W62460  27.794   4.998   1.817
 9565W        W62461  12.274   6.041   2.545
 9566W        W62462  11.486   9.616   0.607
 9567W        W62463  22.870  16.761   8.549
 9568W        W62464   9.162   6.607   3.312
 9569W        W62465  16.271  33.338   7.826
 9570W        W62466  23.558  30.761   7.284
 9571W        W62467  22.708   5.296   9.809
 9572W        W62468  19.190  29.347   2.631
 9573W        W62469  20.189   6.023   7.553
 9574W        W62470  22.625   3.771   2.266
 9575W        W62471  27.140  12.164   7.215
 9576W        W62472  33.214  26.632   8.659
 9577W        W62473  11.749  29.435   6.842
 9578W        W62474  28.328  10.115   2.914
 9579W        W62475  24.441   7.763   2.949
 9580W        W62476   1.693  33.443   1.030
 9581W        W62477  14.057  13.084   2.020
 9582W        W62478  12.291  29.760   0.655
 9583W        W62479  23.488   1.619   2.168
 9584W        W62480  22.663  10.411   0.679
 9585W        W62481  29.405  22.998   7.880
 9586W        W62482  16.247  15.624   1.668
 9587W        W62483  19.660  35.941   8.355
 9588W        W62484  22.218  28.993   8.672
 9589W        W62485  26.180  32.999   9.172
 9590W        W62486  32.067  32.658  10.057
 9591W        W62487  15.550   2.712   9.531
 9592W        W62488  20.610  24.426  10.022
 9593W        W62489  16.478  22.455   9.185
 9594W        W62490  28.184   2.033   1.892
 9595W        W62491  27.499  29.442   9.346
 9596W        W62492  32.512   8.164   9.182
 9597W        W62493  31.631  14.725   0.332
 9598W        W62494  16.270  31.952   8.132
 9599W        W62495  20.519   7.268   9.433
 9600W        W62496  31.994  31.770   8.105
 9601W        W62497  19.927  31.229   9.329
 9602W        W62498  12.799   5.712   7.466
 9603W        W62499   2.693  28.990   0.289
 9604W        W62500  12.059  30.531   2.348
 9605W        W62501  12.138   1.707   7.074
 9606W        W62502   4.612  32.825   2.672
 9607W        W62503   7.319  13.010   7.442
 9608W        W62504   2.813  12.489   3.573
 9609W        W62505  16.086   9.964  10.252
 9610W        W62506  20.383  28.903   8.071
 9611W        W62507   5.473  34.113   2.946
 9612W        W62508   0.473  32.365  10.024
 9613W        W62509  34.217  25.200   0.061
 9614W        W62510  35.744   1.435   2.491
 9615W        W62511  10.156  14.837   8.394
 9616W        W62512  30.079   2.336   2.149
 9617W        W62513  12.167   3.363   1.112
 9618W        W62514  16.600  14.696   8.948
 9619W        W62515  26.577  12.564   0.901
 9620W        W62516  28.654   3.670   2.250
 9621W        W62517  24.484   9.346   1.201
 9622W        W62518  32.700  22.966   9.112
 9623W        W62519  21.632  16.588   8.258
 9624W        W62520  26.594  26.868   2.532
 9625W        W62521  19.301   3.776   0.658
 9626W        W62522   9.629  22.911   1.920
 9627W        W62523   9.959  26.358   8.198
 9628W        W62524  27.716  28.892   2.448
 9629W        W62525   2.283   4.446   1.706
 9630W        W62526  12.622   1.231   0.085
 9631W        W62527   3.397  13.999   8.523
 9632W        W62528  11.762   5.608   9.063
 9633W        W62529   9.095  24.680   8.988
 9634W        W62530  23.623  31.430   2.091
 9635W        W62531  22.877  15.204   2.207
 9636W        W62532  15.534   4.222   9.439
 9637W        W62533   4.185  10.443  10.251
 9638W        W62534  16.408  29.787   2.556
 9639W        W62535  34.590   0.939   7.631
 9640W        W62536  24.931   0.463   2.196
 9641W        W62537  10.710  32.359   0.869
 9642W        W62538  13.543  14.549   2.797
 9643W        W62539  12.107   8.697   3.021
 9644W        W62540  34.289   2.225   0.103
 9645W        W62541  11.855   1.758   1.600
 9646W        W62542  12.865  11.315   2.513
 9647W        W62543  31.570  27.935   9.666
 9648W        W62544  14.980  27.932   8.423
 9649W        W62545  27.965  27.263   9.943
 9650W        W62546   0.798  16.627   0.954
 9651W        W62547  23.474   0.187   9.626
 9652W        W62548  27.780  27.440   1.178
 9653W        W62549   4.194  25.870   9.626
 9654W        W62550  34.607  32.029  10.066
 9655W        W62551  23.050  26.514   0.425
 9656W        W62552  33.254   9.932   7.555
 9657W        W62553  20.518  23.632   1.883
 9658W        W62554  10.715  21.277   9.564
 9659W        W62555  24.068  14.761  10.063
 9660W        W62556  24.611  27.939   2.817
 9661W        W62557  28.271  10.601   0.630
 9662W        W62558   8.600  32.096   0.008
 9663W        W62559   1.056  30.239   9.425
 9664W        W62560   3.083  34.940   7.436
 9665W        W62561  21.903   6.391   9.400
 9666W        W62562  18.341  35.409   1.143
 9667W        W62563   2.351   9.629   9.731
 9668W        W62564  23.097   6.022   8.304
 9669W        W62565  17.656  17.660   2.848
 9670W        W62566  20.074  21.714   0.383
 9671W        W62567  34.067  20.740   1.374
 9672W        W62568  20.781   6.079   2.438
 9673W        W62569   2.742   4.438   8.168
 9674W        W62570   9.997   6.014   9.337
 9675W        W62571  15.097   8.992   2.683
 9676W        W62572  28.696  16.178   2.079
 9677W        W62573  11.965   0.188   2.664
 9678W        W62574  25.585   0.245   0.375
 9679W        W62575  34.510   9.222   2.957
 9680W        W62576  33.798  14.701   1.867
 9681W        W62577  24.108  33.726   0.502
 9682W        W62578  17.050  14.354   0.855
 9683W        W62579  27.545  16.551   1.622
 9684W        W62580   2.281  22.183   0.452
 9685W        W62581   0.966  22.038   2.590
 9686W        W62582   5.921   1.594   7.810
 9687W        W62583  19.035  12.298   0.657
 9688W        W62584  35.474  28.131   1.075
 9689W        W62585  21.094   8.329   8.739
 9690W        W62586  21.871   6.143   7.241
 9691W        W62587  19.388  34.448   1.889
 9692W        W62588   1.010   4.816   3.394
 9693W        W62589   1.262   0.272   1.424
 9694W        W62590   2.937  14.626   0.821
 9695W        W62591  24.401   3.447   0.333
 9696W        W62592  14.352  24.852   3.027
 9697W        W62593  14.793  34.131   2.156
 9698W        W62594   1.339   0.737   8.031
 9699W        W62595  33.568  19.707   8.024
 9700W        W62596  17.900  28.958   3.295
 9701W        W62597   4.308  18.847   2.604
 9702W        W62598  24.134  11.787   1.266
 9703W        W62599  31.693   2.063   0.473
 9704W        W62600   5.490  23.026  10.185
 9705W        W62601  24.806  12.168   8.763
 9706W        W62602  28.019  16.379   1.562
 9707W        W62603   9.502  10.234   2.365
 9708W        W62604  16.580  24.208   2.210
 9709W        W62605   6.713  14.713   1.483
 9710W        W62606  19.181  10.732   8.156
 9711W        W62607  20.596  17.356   8.324
 9712W        W62608  14.599  29.896   9.812
 9713W        W62609   0.821   2.090   8.997
 9714W        W62610  22.966  22.129   8.144
 9715W        W62611   9.196  18.109   3.332
 9716W        W62612  31.489  20.444   3.453
 9717W        W62613  18.241   3.185   0.964
 9718W        W62614  30.428  34.254   0.673
 9719W        W62615  15.777  31.063   7.915
 9720W        W62616   6.104  22.771   2.293
 9721W        W62617  11.275  10.635   1.444
 9722W        W62618  30.278  21.346   2.918
 9723W        W62619  30.004   6.376   0.106
 9724W        W62620  27.058   5.822   1.012
 9725W        W62621  27.010  21.225   1.782
 9726W        W62622   2.173  35.875   0.525
 9727W        W62623  29.499  35.155   9.762
 9728W        W62624  27.809  12.036   1.251
 9729W        W62625  20.357  14.125   1.825
 9730W        W62626   4.559  33.331   3.620
 9731W        W62627  20.479  25.900   9.201
 9732W        W62628  23.472  28.406   1.057
 9733W        W62629   5.634  18.239   7.749
 9734W        W62630  29.212  26.711   9.563
 9735W        W62631  16.982  28.202   8.264
 9736W        W62632  21.620  19.244   3.408
 9737W        W62633  25.128  29.939   7.788
 9738W        W62634  12.301  23.798   9.186
 9739W        W62635  18.112  31.094   8.792
 9740W        W62636   0.414  27.359   2.081
 9741W        W62637  35.118  22.052   9.703
 9742W        W62638   1.602   2.807   2.160
 9743W        W62639  27.749  23.161   2.205
 9744W        W62640   3.802  34.154   2.082
 9745W        W62641  11.162  14.941   2.534
 9746W        W62642  14.998   6.659   8.270
 9747W        W62643  14.057  33.458   2.391
 9748W        W62644  11.144   5.977   1.855
 9749W        W62645   4.202  21.103   8.009
 9750W        W62646  35.615   2.401   8.503
 9751W        W62647  28.654  14.650   9.997
 9752W        W62648  18.019   3.520   1.216
 9753W        W62649  21.675  21.676   9.366
 9754W        W62650  34.026  16.806   3.615
 9755W        W62651   3.084  34.762   8.413
 9756W        W62652  25.557  19.130   3.296
 9757W        W62653  14.502  21.477   9.980
 9758W        W62654  16.020  10.031   9.683
 9759W        W62655  26.126  17.824   8.348
 9760W        W62656   8.458   7.709   2.395
 9761W        W62657  23.499  28.505   9.525
 9762W        W62658  34.031  11.736   2.873
 9763W        W62659  13.244  12.488   1.869
 9764W        W62660  23.942  34.342   2.895
 9765W        W62661  34.024   3.101   7.892
 9766W        W62662   2.548  23.183   8.231
 9767W        W62663  35.793  19.740   0.216
 9768W        W62664  21.623  11.608   8.176
 9769W        W62665  14.649  28.959   2.503
 9770W        W62666  11.376   4.979   0.318
 9771W        W62667  15.754  15.385   1.923
 9772W        W62668  10.474  17.703   1.908
 9773W        W62669   8.948   3.103  10.138
 9774W        W62670  22.954  21.747   3.823
 9775W        W62671   3.640   4.214   1.030
 9776W        W62672  18.697  24.824   0.775
 9777W        W62673  28.298   0.765   0.974
 9778W        W62674  14.661  30.640   8.552
 9779W        W62675  21.069   1.308   2.004
 9780W        W62676  24.233  35.100   0.210
 9781W        W62677   9.039   1.729   9.647
 9782W        W62678  25.341  26.247   2.542
 9783W        W62679  19.957  28.436   9.528
 9784W        W62680  34.927   9.693   7.142
 9785W        W62681  11.725  21.123   0.603
 9786W        W62682  12.224  23.036  10.075
 9787W        W62683  32.769   3.966  10.328
 9788W        W62684  30.682  12.490  10.047
 9789W        W62685  24.677  24.329   0.799
 9790W        W62686  29.765  24.119   1.054
 9791W        W62687  11.746  20.350   8.028
 9792W        W62688   3.952  13.231   8.834
 9793W        W62689  21.959  15.561   1.882
 9794W        W62690   7.489  12.960   7.917
 9795W        W62691  18.637   1.453   2.636
 9796W        W62692  14.623   8.035   8.871
 9797W        W62693  13.940  27.873   2.126
 9798W        W62694  12.908   9.042   2.203
 9799W        W62695   1.854  28.161   7.419
 9800W        W62696  27.722  11.720   8.644
 9801W        W62697  34.083  35.022   8.451
 9802W        W62698  23.240   5.622   8.576
 9803W        W62699  33.476   7.444   7.655
 9804W        W62700  31.289  32.546   0.212
 9805W        W62701   5.379  17.676   3.552
 9806W        W62702  15.581  28.806   1.729
 9807W        W62703   4.754  28.464   8.487
 9808W        W62704  13.840  23.503   7.193
 9809W        W62705  20.181   6.590   8.483
 9810W        W62706  15.452  14.994   9.710
 9811W        W62707   9.915   0.462   1.375
 9812W        W62708  18.246  12.471   2.290
 9813W        W62709  17.850   6.347   2.935
 9814W        W62710   3.432   7.279   9.975
 9815W        W62711  29.429  16.121  10.277
 9816W        W62712  33.147  32.024   2.594
 9817W        W62713   0.525  24.098   9.028
 9818W        W62714   5.429   3.790   0.908
 9819W        W62715  31.088   2.788   8.687
 9820W        W62716  25.751  23.173   7.392
 9821W        W62717  22.161  26.325   7.847
 9822W        W62718  29.689  20.799   9.171
 9823W        W62719  21.553   6.551   2.426
 9824W        W62720  14.984  18.172   9.545
 9825W        W62721  13.923   9.690   0.059
 9826W        W62722  19.089   7.960  10.048
 9827W        W62723  29.486  18.202   9.087
 9828W        W62724   6.940   0.103   1.569
 9829W        W62725  18.390   6.905   0.554
 9830W        W62726  28.297   9.682   8.392
 9831W        W62727  23.764  25.842   3.663
 9832W        W62728  25.052  14.618   2.851
 9833W        W62729   2.275   0.843   2.718
 9834W        W62730  31.412  18.240   1.783
 9835W        W62731   2.582   0.787   0.548
 9836W        W62732  13.594  12.567   9.578
 9837W        W62733   0.422   9.066   8.212
 9838W        W62734  16.699  16.108   1.412
 9839W        W62735   9.654  35.634   0.319
 9840W        W62736   0.212  21.707  10.070
 9841W        W62737  28.102  27.595   2.445
 9842W        W62738  18.093  13.255   0.698
 9843W        W62739  18.400  13.714   3.282
 9844W        W62740   0.959  22.122   9.972
 9845W        W62741   3.355   8.229  10.102
 9846W        W62742  10.282  33.736   9.981
 9847W        W62743   8.699  10.035   8.260
 9848W        W62744   6.727  35.490   9.067
 9849W        W62745   2.252  33.277   2.491
 9850W        W62746  21.278  19.769   0.990
 9851W        W62747  33.515   3.083   0.333
 9852W        W62748   7.172  26.500   1.994
 9853W        W62749  14.173  24.901   9.201
 9854W        W62750  25.169   7.744   1.358
 9855W        W62751   4.248   6.752   3.483
 9856W        W62752  33.690  10.137   8.366
 9857W        W62753  27.160  20.045   0.004
 9858W        W62754   0.760   3.182   7.733
 9859W        W62755  18.161   1.505   8.027
 9860W        W62756   7.804   4.433   0.573
 9861W        W62757  11.715  30.890   0.635
 9862W        W62758  25.373  33.197   7.928
 9863W        W62759  35.284  15.510   3.465
 9864W        W62760   7.203  16.489   0.367
 9865W        W62761  12.425  29.085   1.946
 9866W        W62762   1.330  25.447   8.026
 9867W        W62763  20.542  25.103   9.416
 9868W        W62764  22.115  11.676   2.693
 9869W        W62765  21.933  25.440   9.109
 9870W        W62766   9.031  34.983   9.410
 9871W        W62767  11.805   3.366   0.282
 9872W        W62768  30.687  15.895   0.120
 9873W        W62769   6.415  28.730  10.273
 9874W        W62770   2.296  35.718   0.064
 9875W        W62771  21.259  12.144   3.506
 9876W        W62772   7.395  25.657   1.807
 9877W        W62773  22.933  27.372   2.207
 9878W        W62774   8.784  20.078   9.733
 9879W        W62775  11.147  35.772   1.718
 9880W        W62776  20.093  19.664   8.986
 9881W        W62777  28.351  34.505   7.826
 9882W        W62778  16.036  19.389   9.463
 9883W        W62779  21.227  13.769   8.938
 9884W        W62780  33.171   4.127   8.051
 9885W        W62781  35.574  19.240   8.169
 9886W        W62782   8.136  14.479   2.373
 9887W        W62783  19.927   9.018   1.428
 9888W        W62784  19.179  16.207   1.008
 9889W        W62785  19.690  30.810   8.653
 9890W        W62786   9.110   2.482   3.402
 9891W        W62787   8.643  27.544   1.151
 9892W        W62788  15.008   4.188   0.238
 9893W        W62789  24.587  19.763   0.241
 9894W        W62790  27.059  10.593   9.450
 9895W        W62791  30.093  29.041   9.725
 9896W        W62792  29.424  22.924   1.702
 9897W        W62793   3.427  21.979  10.166
 9898W        W62794  33.775  21.571   0.662
 9899W        W62795  13.523   4.129   2.348
 9900W        W62796  30.082  12.623   3.089
 9901W        W62797   2.153  23.642   0.800
 9902W        W62798  25.524  27.521   8.974
 9903W        W62799  26.381  33.227   0.553
 9904W        W62800  23.916  34.398   9.140
 9905W        W62801  20.882   4.738   3.965
 9906W        W62802  31.324  33.896   9.540
 9907W        W62803   8.097  17.461   9.225
 9908W        W62804  23.303  25.993   9.233
 9909W        W62805  32.538  27.464   0.899
 9910W        W62806   2.519  11.671   8.966
 9911W        W62807  10.995  14.406   8.351
 9912W        W62808   1.868  17.316   3.603
 9913W        W62809  17.252  18.887   1.860
 9914W        W62810  32.738   3.861   3.553
 9915W        W62811  12.903   2.990   9.686
 9916W        W62812  33.147   8.490   9.836
 9917W        W62813  29.143  10.756   1.334
 9918W        W62814  23.035   8.233   2.817
 9919W        W62815  35.683  28.621   7.536
 9920W        W62816  23.103   0.474   0.819
 9921W        W62817  10.118   2.957   7.589
 9922W        W62818  25.433   3.401   2.183
 9923W        W62819  17.176  11.505   3.287
 9924W        W62820   5.434  11.101   9.084
 9925W        W62821  13.393  13.961   9.752
 9926W        W62822  34.249   8.127   9.349
 9927W        W62823  32.794  28.588   0.090
 9928W        W62824   8.823  13.954   3.320
 9929W        W62825  14.678  28.849   0.869
 9930W        W62826  35.719  22.820   1.709
 9931W        W62827  32.702  29.205   2.302
 9932W        W62828  26.065   2.524   9.321
 9933W        W62829   1.191   6.059   2.771
 9934W        W62830  32.048  35.503   8.986
 9935W        W62831   5.309   3.977   8.543
 9936W        W62832  27.626  12.715   2.897
 9937W        W62833   2.742   7.944   2.979
 9938W        W62834  13.164  15.427   8.432
 9939W        W62835  32.261  13.754   2.832
 9940W        W62836  28.385  10.833   1.095
 9941W        W62837  18.519  22.190   2.302
 9942W        W62838  21.856   8.262   9.693
 9943W        W62839  11.096  25.537   0.332
 9944W        W62840   9.618   0.503   9.771
 9945W        W62841  34.338  23.024   0.054
 9946W        W62842  11.481   4.130   9.975
 9947W        W62843  12.270  19.306   0.174
 9948W        W62844  28.317   3.667   9.586
 9949W        W62845  25.051   7.178   2.655
 9950W        W62846  14.335   5.124   0.997
 9951W        W62847  13.658  31.018   0.916
 9952W        W62848  14.072   6.094   1.169
 9953W        W62849   6.186  33.426   9.291
 9954W        W62850  29.184  21.503   2.815
 9955W        W62851   7.859  26.895   2.518
 9956W        W62852   1.537  26.387   0.274
 9957W        W62853  23.328  16.021   1.736
 9958W        W62854  12.198  20.691   1.057
 9959W        W62855  20.103  35.729   0.503
 9960W        W62856  25.718  21.271   7.727
 9961W        W62857  13.228   2.244   0.057
 9962W        W62858  12.530  20.102   7.178
 9963W        W62859   0.626  35.221   3.005
 9964W        W62860   4.449  29.531   8.535
 9965W        W62861  23.502  21.997   1.307
 9966W        W62862  34.597  27.449   3.172
 9967W        W62863  10.676  13.254   7.583
 9968W        W62864  18.826  15.189   3.746
 9969W        W62865  20.501   8.053   2.488
 9970W        W62866   1.044  19.549   7.440
 9971W        W62867  35.465  23.781   7.875
 9972W        W62868  13.400   8.549   0.632
 9973W        W62869  21.435  26.120   3.001
 9974W        W62870  13.205  18.074   1.083
 9975W        W62871  15.635   8.345   1.743
 9976W        W62872  33.172  24.400   9.410
 9977W        W62873  14.665  18.045   2.814
 9978W        W62874  18.395  16.873   0.139
 9979W        W62875  13.701  29.779   0.772
 9980W        W62876   4.952   9.734   8.802
 9981W        W62877   6.082  26.921   1.358
 9982W        W62878  16.787  30.670   8.684
 9983W        W62879   0.704  19.068   7.869
 9984W        W62880   1.396  11.757   7.385
 9985W        W62881  21.079  18.997   8.958
 9986W        W62882  21.730   5.602   1.156
 9987W        W62883  12.980  26.743   0.473
 9988W        W62884   6.782  21.214   7.018
 9989W        W62885  29.470   2.324   2.222
 9990W        W62886   9.904  22.255   8.433
 9991W        W62887  30.252  10.393   8.903
 9992W        W62888   1.774   6.018   8.146
 9993W        W62889  30.094  34.863   7.180
 9994W        W62890  25.414  23.659   9.011
 9995W        W62891  18.863  17.470   8.372
 9996W        W62892   8.956  23.716   0.436
 9997W        W62893  31.335  33.995   8.190
 9998W        W62894  29.928   3.334   9.886
 9999W        W62895   8.952  13.230   0.583
10000W        W62896   5.942   1.567   0.824
10001W        W62897  35.456  20.317   8.298
10002W        W62898   4.036  30.201   9.083
10003W        W62899   1.948   3.362   7.499
10004W        W62900   2.912  33.985   8.236
10005W        W62901  28.636  22.649   0.817
10006W        W62902  11.254  32.235   2.701
10007W        W62903  19.030  35.526   8.930
10008W        W62904   9.061  19.884   1.261
10009W        W62905   8.583  27.773   0.698
10010W        W62906   0.286  20.093   2.569
10011W        W62907  14.246  21.875   9.143
10012W        W62908  23.437   9.485   8.954
10013W        W62909   4.968  35.639   8.106
10014W        W62910  18.089  13.793   2.946
10015W        W62911   4.764   4.990   7.147
10016W        W62912  13.884  11.431   3.252
10017W        W62913  18.379  18.391   0.375
10018W        W62914   2.261  20.021   1.367
10019W        W62915  20.259  23.147   2.170
10020W        W62916  10.282   0.726   8.850
10021W        W62917  13.917  20.562   7.540
10022W        W62918   9.157  30.733   7.570
10023W        W62919  21.652  15.928   3.864
10024W        W62920  26.702  29.984   8.024
10025W        W62921  15.535  13.453   2.218
10026W        W62922  27.964  27.412   7.891
10027W        W62923   4.506  19.500   7.935
10028W        W62924  27.077   7.109   0.394
10029W        W62925   2.883  35.369   2.808
10030W        W62926   3.230  33.057  10.174
10031W        W62927  28.828  11.015   9.683
10032W        W62928  21.991  15.998   2.739
10033W        W62929   5.624  15.280  10.288
10034W        W62930  32.132   9.976   9.700
10035W        W62931   4.132   4.012   1.033
10036W        W62932  19.006  29.397   9.952
10037W        W62933  34.707  13.095   2.234
10038W        W62934  35.294  32.936   0.902
10039W        W62935   8.327  34.419   9.390
10040W        W62936  18.103   8.389   9.470
10041W        W62937   7.332  25.384   2.327
10042W        W62938  34.573  26.803   8.084
10043W        W62939   6.799  20.820   0.582
10044W        W62940  33.050   2.819   9.476
10045W        W62941   4.731   2.671   7.918
10046W        W62942  35.585  28.469   2.085
10047W        W62943  30.108  30.083   8.667
10048W        W62944  15.320  14.199   2.334
10049W        W62945  24.666  28.512  10.242
10050W        W62946  29.067  10.474   3.256
10051W        W62947  34.779  12.039   1.341
10052W        W62948   0.204  16.781   4.242
10053W        W62949   0.823   6.946   0.281
10054W        W62950  16.163   7.387   0.951
10055W        W62951  15.089  33.796   2.639
10056W        W62952  32.069  19.761   3.118
10057W        W62953  21.511  29.462   8.579
10058W        W62954  32.040  11.076   3.145
10059W        W62955   0.204   6.181   7.545
10060W        W62956   0.985  31.474   9.876
10061W        W62957  28.147   4.395   3.013
10062W        W62958   8.565  32.625  10.207
10063W        W62959  13.112  32.903   2.645
10064W        W62960  20.202  29.245   8.861
10065W        W62961  23.141  26.806   0.001
10066W        W62962   0.445  16.788   1.669
10067W        W62963  10.078  16.363  10.035
10068W        W62964  31.185  12.372   9.992
10069W        W62965   7.650  10.564   2.400
10070W        W62966  19.551  31.988   3.475
10071W        W62967  23.470   2.643   3.238
10072W        W62968  29.758   1.784   8.904
10073W        W62969   0.910  20.969   2.707
10074W        W62970  29.627  16.189   7.339
10075W        W62971   4.216   6.064   1.863
10076W        W62972   2.354   1.572   7.467
10077W        W62973  25.238  26.439   3.502
10078W        W62974   4.153  22.761   0.194
10079W        W62975  11.276  10.392   3.589
10080W        W62976   5.036  17.982   9.853
10081W        W62977  18.649   0.347   8.416
10082W        W62978  26.531   6.867   8.697
10083W        W62979   7.190  34.533   0.473
10084W        W62980  12.651  15.541   0.688
10085W        W62981  16.935  12.582   8.802
10086W        W62982  15.471  36.014   2.418
10087W        W62983   8.580   1.922   9.655
10088W        W62984  30.576   5.958   2.931
10089W        W62985  11.825  32.132  10.193
10090W        W62986  34.641  33.148   1.660
10091W        W62987  29.877  13.393   8.702
10092W        W62988   1.588  20.713   8.269
10093W        W62989   7.308  29.381   1.267
10094W        W62990   8.902   9.433   2.351
10095W        W62991  17.606  13.361   2.877
10096W        W62992   6.236  21.856   0.372
10097W        W62993  28.456   4.724   9.142
10098W        W62994  10.776   9.154   6.994
10099W        W62995  34.421  29.190   9.403
10100W        W62996  12.912  16.342   2.376
10101W        W62997  35.069  17.628   2.471
10102W        W62998  17.463   1.635   7.643
10103W        W62999  21.251  10.623   2.353
10104W        W63000  18.134  26.193   7.849
10105W        W63001   6.743  22.885  10.077
10106W        W63002   7.019   9.495   1.015
10107W        W63003  16.827  17.571  10.166
10108W        W63004  21.419  34.504   9.569
10109W        W63005  10.588  17.471  10.141
10110W        W63006  17.242  22.648   8.418
10111W        W63007  33.755  11.738   8.180
10112W        W63008  21.718  23.736   9.029
10113W        W63009  23.035   8.940   2.309
10114W        W63010  16.882   3.972   9.253
10115W        W63011   0.730  12.405   2.731
10116W        W63012   1.251  31.445   0.400
10117W        W63013  27.544  27.901   1.269
10118W        W63014   1.088  27.758   0.442
10119W        W63015  28.177  10.342   8.752
10120W        W63016  10.321  33.297   2.544
10121W        W63017  23.580  18.256   1.672
10122W        W63018  30.928  25.740   9.667
10123W        W63019   9.521   0.882   9.475
10124W        W63020   2.866  12.199   7.490
10125W        W63021  27.145   6.728   3.324
10126W        W63022  20.066   2.363   2.473
10127W        W63023  31.024  22.442   8.763
10128W        W63024  13.321  27.056   3.221
10129W        W63025  17.749   7.113   9.598
10130W        W63026  18.950   3.780   9.642
10131W        W63027  24.883  30.958   8.936
10132W        W63028  34.158  13.886   2.988
10133W        W63029  23.165  19.266   1.102
10134W        W63030   9.409  33.512   7.630
10135W        W63031  27.685   5.402   3.624
10136W        W63032  15.543   2.132   1.255
10137W        W63033  30.661   6.094   8.241
10138W        W63034  24.442  21.560   9.042
10139W        W63035   7.885  30.302   9.707
10140W        W63036  28.073  24.105   0.477
10141W        W63037   4.847   4.383   0.118
10142W        W63038  18.075  24.149   2.586
10143W        W63039  20.945  16.587   0.517
10144W        W63040  14.001  11.253   0.980
10145W        W63041   5.526   1.800  10.315
10146W        W63042  29.165  14.517   2.885
10147W        W63043  16.779  10.053   8.014
10148W        W63044   5.705  14.647   7.949
10149W        W63045   7.708   6.898   1.925
10150W        W63046   2.851   9.901   8.029
10151W        W63047  25.795  12.067   9.866
10152W        W63048   4.037  23.804   1.923
10153W        W63049   8.220  16.334   2.262
10154W        W63050  28.096  18.983   0.039
10155W        W63051   2.959   7.082   9.693
10156W        W63052  13.197   5.429   7.607
10157W        W63053  21.785  22.143   2.569
10158W        W63054   8.019  22.289   7.552
10159W        W63055  11.525   4.543   2.959
10160W        W63056   5.512  31.392   0.960
10161W        W63057  35.954  14.519   8.525
10162W        W63058  26.501   2.939   8.787
10163W        W63059  30.601  20.945   2.018
10164W        W63060  13.786  18.747   2.284
10165W        W63061  20.418  34.131   1.210
10166W        W63062   5.798  17.894  10.087
10167W        W63063  11.031  34.120   1.901
10168W        W63064   6.557   7.856   3.436
10169W        W63065   4.454   3.047   0.653
10170W        W63066  16.125  20.986   8.857
10171W        W63067   5.222  19.179   9.098
10172W        W63068  27.156   6.094   9.098
10173W        W63069  18.504  35.623   2.103
10174W        W63070   4.096   8.189   7.242
10175W        W63071  33.345  34.732   8.176
10176W        W63072  32.548   2.026   8.292
10177W        W63073   5.582  11.957   9.919
10178W        W63074  15.127  22.267   2.439
10179W        W63075  35.290   8.937   7.110
10180W        W63076  28.410  12.186   8.760
10181W        W63077  32.363   9.890   2.775
10182W        W63078  24.601  10.428   7.215
10183W        W63079  30.199   7.256   1.141
10184W        W63080  14.152  15.042   9.365
10185W        W63081  16.157  10.908   0.894
10186W        W63082  23.653  10.405   3.956
10187W        W63083  23.698  25.941   8.894
10188W        W63084   5.465  21.797   1.258
10189W        W63085  20.757   7.341   8.609
10190W        W63086  19.802   2.216   9.904
10191W        W63087  23.494  20.703   1.150
10192W        W63088  19.514   0.596   9.288
10193W        W63089  20.848  31.090   8.267
10194W        W63090  24.565   5.612   8.859
10195W        W63091  14.859  17.844   1.489
10196W        W63092  18.179  22.247  10.262
10197W        W63093  16.435  34.374   0.621
10198W        W63094  27.102  30.717   9.799
10199W        W63095  11.891  15.072   3.383
10200W        W63096  25.677  32.226   0.154
10201W        W63097  11.915   1.672   9.923
10202W        W63098  14.614  24.836   1.123
10203W        W63099  35.859   8.338   9.176
10204W        W63100  27.431  31.757   2.917
10205W        W63101   8.920  32.641   2.557
10206W        W63102  10.898  19.596   7.307
10207W        W63103  24.431  31.737   2.637
10208W        W63104   7.722  29.866   8.883
10209W        W63105  17.966  21.205  10.169
10210W        W63106  20.722  15.036   9.286
10211W        W63107  23.415  14.883   9.402
10212W        W63108  28.425  32.789   7.262
10213W        W63109   2.526  13.299   0.657
10214W        W63110  13.285   9.652   8.339
10215W        W63111  23.791   4.456   8.216
10216W        W63112   6.880  23.021   9.202
10217W        W63113   0.268  15.481   1.886
10218W        W63114   8.580   9.316   1.905
10219W        W63115  27.446  13.158   9.984
10220W        W63116   4.417  27.838   1.851
10221W        W63117  27.078  16.447   7.295
10222W        W63118   4.278  25.382   3.485
10223W        W63119  31.084  15.433   2.154
10224W        W63120  23.172  30.164   1.967
10225W        W63121  34.643  12.837   0.580
10226W        W63122  24.392  12.266   7.208
10227W        W63123  13.444   5.881   8.152
10228W        W63124  18.027  15.004   8.704
10229W        W63125  27.117   5.532   1.885
10230W        W63126   3.816  29.653   0.358
10231W        W63127  35.756  13.598   9.010
10232W        W63128  27.149  14.931   0.073
10233W        W63129  22.824  27.881   0.214
10234W        W63130  16.316  20.719   4.009
10235W        W63131   8.253   0.738  10.036
10236W        W63132  33.589  20.895   2.462
10237W        W63133  33.145   9.673   0.733
10238W        W63134  11.893  13.095   8.373
10239W        W63135  15.104  25.295   2.847
10240W        W63136  14.185   6.503   7.154
10241W        W63137  15.562  17.055   8.780
10242W        W63138   9.716   5.035   7.254
10243W        W63139  24.641   1.687   9.952
10244W        W63140  13.528   8.100   2.554
10245W        W63141  27.624   9.073   2.537
10246W        W63142   1.155  23.907   1.705
10247W        W63143  10.818  12.267   8.820
10248W        W63144  17.696   5.279   0.210
10249W        W63145  24.212  25.871   0.615
10250W        W63146   9.673   3.747   0.105
10251W        W63147  16.169  20.146   3.296
10252W        W63148   1.380   9.769   8.854
10253W        W63149  35.964  28.028   0.857
10254W        W63150  33.272  25.586   0.002
10255W        W63151  32.523  24.951   9.816
10256W        W63152  14.891  34.719   8.845
10257W        W63153   5.343   1.556   8.703
10258W        W63154  23.850  12.185   9.786
10259W        W63155  32.837   4.133   1.798
10260W        W63156   8.464  15.195   8.706
10261W        W63157  29.637   4.446   1.340
10262W        W63158  23.655  35.335   8.843
10263W        W63159  27.028   5.302   7.908
10264W        W63160   5.391  14.912   0.232
10265W        W63161  28.458  28.571   7.669
10266W        W63162  24.644  20.304   3.119
10267W        W63163  21.925  16.735   0.343
10268W        W63164  16.950  19.875   8.186
10269W        W63165   1.398  13.430   1.874
10270W        W63166  11.240   7.636   8.961
10271W        W63167  31.052  29.594   8.985
10272W        W63168   7.165   0.347   9.363
10273W        W63169  26.390  34.974   9.147
10274W        W63170   6.017   0.387   9.310
10275W        W63171  21.812  14.891   7.759
10276W        W63172  14.884  24.544   0.205
10277W        W63173  21.087  11.108   3.378
10278W        W63174  15.973  12.905   3.590
10279W        W63175   1.608  19.632   2.003
10280W        W63176  10.004  15.454   7.720
10281W        W63177  30.606   7.776   0.384
10282W        W63178  23.695  29.574   8.140
10283W        W63179  26.708   2.193   2.442
10284W        W63180  11.470  31.162   1.099
10285W        W63181  11.304   2.589   9.285
10286W        W63182  26.551  25.308   8.018
10287W        W63183   1.312  19.834   8.262
10288W        W63184  20.637  22.547   2.119
10289W        W63185  34.452   9.158   9.106
10290W        W63186  32.341  35.201   2.484
10291W        W63187  16.453  27.623   9.419
10292W        W63188   6.939  32.199   2.284
10293W        W63189  33.724  27.036  10.292
10294W        W63190   6.247   1.242   8.787
10295W        W63191   0.645  19.887   8.644
10296W        W63192   7.778  12.354   9.049
10297W        W63193  29.155   8.458   7.991
10298W        W63194   6.507   5.925   2.375
10299W        W63195  15.721  20.154   0.257
10300W        W63196  11.510   2.657   1.205
10301W        W63197  22.965   2.815   3.290
10302W        W63198  12.879   8.981   8.615
10303W        W63199  35.905  20.175   3.390
10304W        W63200  32.580  11.449   0.313
10305W        W63201  19.250  15.491   9.929
10306W        W63202  10.191   2.152   1.312
10307W        W63203  27.280   1.147  10.314
10308W        W63204  35.951  15.525   8.944
10309W        W63205  27.403  35.218   1.005
10310W        W63206  11.939  31.598   8.817
10311W        W63207  16.140  17.493   1.776
10312W        W63208  30.767   3.755   0.448
10313W        W63209  23.084  24.636  10.316
10314W        W63210   3.547  29.477   0.751
10315W        W63211  13.172  12.419   9.443
10316W        W63212  24.432   0.445   2.260
10317W        W63213  11.856   0.208   1.906
10318W        W63214  25.089   4.540   2.219
10319W        W63215  17.220  33.855   8.204
10320W        W63216   3.964  22.546   1.829
10321W        W63217  14.236  19.673   1.080
10322W        W63218  26.179  28.784   9.971
10323W        W63219  16.353   9.146   1.192
10324W        W63220  18.918  14.686   0.471
10325W        W63221  29.338  27.115   1.767
10326W        W63222  33.250   3.697   9.452
10327W        W63223  22.246  25.734   2.940
10328W        W63224  12.428  33.480   9.200
10329W        W63225  18.514  12.002   3.109
10330W        W63226   0.803   2.377   7.921
10331W        W63227   6.205  20.173   0.393
10332W        W63228  34.547  17.763   0.318
10333W        W63229  12.900  34.175   9.205
10334W        W63230  30.635  26.895   1.235
10335W        W63231   6.419  35.869   1.562
10336W        W63232  29.246   6.516   9.363
10337W        W63233  24.685  17.527   7.517
10338W        W63234  35.934   3.716   1.942
10339W        W63235   9.840  24.249   0.892
10340W        W63236  21.653   4.777   1.120
10341W        W63237  16.358  31.350  10.173
10342W        W63238  19.411  25.463   8.630
10343W        W63239  12.976  35.216   8.342
10344W        W63240   1.621   9.754   2.100
10345W        W63241  12.692  14.350   7.767
10346W        W63242  35.245  13.167  10.279
10347W        W63243   3.637  16.375   9.106
10348W        W63244   5.338  35.818   7.850
10349W        W63245  24.778  23.610   1.955
10350W        W63246  35.997   1.518   1.339
10351W        W63247  29.390  21.781   7.025
10352W        W63248   1.260   6.042   8.111
10353W        W63249   8.254  27.467   8.712
10354W        W63250  34.588   6.158   9.980
10355W        W63251  24.482   7.409   1.790
10356W        W63252   3.017  28.708   3.181
10357W        W63253   2.286   3.474   0.605
10358W        W63254  35.915  32.403   0.816
10359W        W63255  11.548  21.195   2.777
10360W        W63256  26.174   2.139   2.461
10361W        W63257  32.691  34.217   1.903
10362W        W63258  11.311  25.482   7.259
10363W        W63259  24.770  24.264  10.136
10364W        W63260   0.455  19.245   9.959
10365W        W63261  15.063  24.294   0.646
10366W        W63262  34.439   2.071   2.897
10367W        W63263  35.251  22.583   9.500
10368W        W63264   6.663  14.060   3.803
10369W        W63265   0.373  21.808   8.414
10370W        W63266  14.179  22.698  10.188
10371W        W63267  26.281  18.422   7.507
10372W        W63268  15.758  31.225   0.069
10373W        W63269  22.922   8.362   1.605
10374W        W63270   4.781   0.352   8.864
10375W        W63271  18.176  14.920   2.285
10376W        W63272  30.763  35.053   9.556
10377W        W63273  25.101   7.603   7.928
10378W        W63274  31.978  26.103   1.802
10379W        W63275  22.476  20.285   0.416
10380W        W63276   7.925  20.034   2.356
10381W        W63277  19.169  28.495   9.145
10382W        W63278   4.502   5.323  10.216
10383W        W63279  23.468  33.999   8.468
10384W        W63280  35.287  10.490   2.963
10385W        W63281  29.066  18.122   8.787
10386W        W63282  18.854  24.061   3.797
10387W        W63283  19.479  19.606   2.811
10388W        W63284  32.978  34.298   0.081
10389W        W63285   1.179  17.209   2.857
10390W        W63286  33.138  19.843   8.300
10391W        W63287  25.734  13.559   0.714
10392W        W63288   9.839   8.773   0.305
10393W        W63289  31.148  28.347  10.040
10394W        W63290   5.387  29.396   3.658
10395W        W63291  14.850  11.676   8.245
10396W        W63292  26.069  14.022   2.333
10397W        W63293   8.720  12.405   8.353
10398W        W63294  29.477  25.132   8.630
10399W        W63295   4.320  28.513   9.791
10400W        W63296  29.664  34.940   7.588
10401W        W63297  10.668  35.948   1.977
10402W        W63298  19.980  14.999   2.275
10403W        W63299  30.318  31.655   8.441
10404W        W63300  19.657  25.130   8.101
10405W        W63301  18.588  23.245   8.572
10406W        W63302  28.751  16.955   9.058
10407W        W63303  23.082  34.684   8.898
10408W        W63304  35.111  34.016   9.566
10409W        W63305  26.912  19.591   0.049
10410W        W63306  25.234  22.232   9.591
10411W        W63307   6.984  10.973   2.932
10412W        W63308  32.209  24.112   1.930
10413W        W63309  10.929  18.646   0.775
10414W        W63310  15.082  12.710   1.997
10415W        W63311  23.632  17.937  10.311
10416W        W63312   8.733  10.612   0.529
10417W        W63313  26.963  16.896   1.222
10418W        W63314   4.789  10.497   0.586
10419W        W63315  15.650   6.090   2.772
10420W        W63316  25.437   8.970   1.160
10421W        W63317  16.401  30.861  10.170
10422W        W63318  23.714  13.854   7.498
10423W        W63319  15.032  26.957   8.050
10424W        W63320  27.280  11.902   2.803
10425W        W63321  31.959  33.459   0.134
10426W        W63322  20.363  35.550   3.475
10427W        W63323  32.340  18.559  10.172
10428W        W63324  34.990  20.597   3.594
10429W        W63325  33.388  33.757   9.189
10430W        W63326   0.074  31.133   8.809
10431W        W63327   7.009  33.477   2.925
10432W        W63328  25.671   0.123   7.361
10433W        W63329  32.108   0.521   8.645
10434W        W63330   3.487  10.569   7.989
10435W        W63331  35.566  28.414  10.063
10436W        W63332  15.042  11.954   2.032
10437W        W63333  31.561  25.507   0.510
10438W        W63334  19.058   0.786   2.997
10439W        W63335   9.688  26.397   9.373
10440W        W63336  22.710  23.393   0.934
10441W        W63337  17.580  12.661   8.198
10442W        W63338  18.904  25.876   9.724
10443W        W63339  35.418  15.884   0.770
10444W        W63340  15.306  20.833   8.796
10445W        W63341  13.813  20.143   3.062
10446W        W63342  29.337  31.191   8.960
10447W        W63343  21.148  23.865   8.875
10448W        W63344  25.100  17.452  10.049
10449W        W63345  12.829  23.927   1.303
10450W        W63346  30.492  23.552   1.897
10451W        W63347  17.236  22.238   2.679
10452W        W63348   3.900  26.222   7.949
10453W        W63349   0.580  35.236   2.524
10454W        W63350  35.690  22.306   0.454
10455W        W63351  11.559  35.523   1.555
10456W        W63352   4.045   5.559   1.866
10457W        W63353  33.589  17.657   1.379
10458W        W63354   3.182  30.847   9.487
10459W        W63355   4.163   8.688   1.917
10460W        W63356   0.610  26.242   2.887
10461W        W63357  17.243   8.339   1.947
10462W        W63358  11.581  34.081   8.340
10463W        W63359   3.670  15.873   3.827
10464W        W63360  14.389  20.346   2.305
10465W        W63361  21.172   0.429   0.291
10466W        W63362  27.130   9.078   0.831
10467W        W63363  25.543  23.559   0.157
10468W        W63364  20.490  13.475   1.577
10469W        W63365  14.337  34.129   0.380
10470W        W63366  34.487  15.231   0.730
10471W        W63367  15.398  27.657   1.025
10472W        W63368  35.156  20.612   0.030
10473W        W63369   6.808  15.091   8.422
10474W        W63370   1.275  22.058   1.188
10475W        W63371   2.866  28.226   3.035
10476W        W63372   5.126  29.635   7.700
10477W        W63373   2.265  27.591   8.580
10478W        W63374  25.568  19.447   2.756
10479W        W63375   8.369  14.697   9.432
10480W        W63376  30.118  10.498  10.030
10481W        W63377  21.618  27.950   8.786
10482W        W63378  32.588   9.217   2.991
10483W        W63379  25.101  23.570   9.766
10484W        W63380  19.697  18.461   1.419
10485W        W63381  33.266  35.976   8.753
10486W        W63382   0.963  17.247   3.825
10487W        W63383  25.053  18.951   2.265
10488W        W63384   7.906  15.709   9.271
10489W        W63385   5.884  25.791  10.251
10490W        W63386  31.916  12.816   0.564
10491W        W63387   0.821  13.117   3.118
10492W        W63388   9.750  31.783   2.756
10493W        W63389  11.929  21.255   3.114
10494W        W63390  18.220  29.511   8.865
10495W        W63391  16.195  12.452   1.532
10496W        W63392  22.437  31.377   9.252
10497W        W63393  13.842  34.892   8.845
10498W        W63394  22.446   7.987  10.179
10499W        W63395  11.527  27.012   1.201
10500W        W63396  35.374  23.169   2.227
10501W        W63397  23.192   9.932   1.429
10502W        W63398  25.596  23.465   9.984
10503W        W63399  20.767   4.970   9.820
10504W        W63400  28.055  28.742   0.515
10505W        W63401  21.236  26.173   1.121
10506W        W63402  12.437  32.022   1.598
10507W        W63403  14.987  31.462   2.426
10508W        W63404   7.946  28.349   9.606
10509W        W63405  22.250  20.928   9.284
10510W        W63406  31.599  26.427   1.658
10511W        W63407   4.329   8.201   9.624
10512W        W63408  12.887  34.365   1.479
10513W        W63409  32.795  12.985   2.665
10514W        W63410  32.865  31.950   3.493
10515W        W63411  23.534  26.488   1.682
10516W        W63412  26.331   1.683   9.054
10517W        W63413   2.703  20.487   8.796
10518W        W63414  32.134   9.001   8.067
10519W        W63415  24.133  32.397   7.322
10520W        W63416  19.939   3.265   2.656
10521W        W63417  29.685  27.183   7.786
10522W        W63418  12.642  20.281   9.274
10523W        W63419  32.399  22.009   0.555
10524W        W63420  19.192  28.060   3.951
10525W        W63421  27.017  11.081   0.880
10526W        W63422  27.326  26.559   1.505
10527W        W63423  20.635  23.342   8.145
10528W        W63424  29.924  14.411   1.631
10529W        W63425  13.557  16.449   9.954
10530W        W63426  22.348  31.144  10.149
10531W        W63427  27.483  23.877   1.683
10532W        W63428  29.755   4.677   3.812
10533W        W63429  17.369  22.782   0.482
10534W        W63430  10.595   8.932   3.045
10535W        W63431   4.630  32.044   3.164
10536W        W63432   8.592   1.233   8.375
10537W        W63433  20.016  33.885   9.098
10538W        W63434  29.785  31.201   3.232
10539W        W63435   0.247  22.431   9.491
10540W        W63436  24.183  17.082   4.368
10541W        W63437  31.912   4.252   9.980
10542W        W63438  28.674   9.628   0.646
10543W        W63439  25.678  19.948   7.178
10544W        W63440  34.787  32.836   1.232
10545W        W63441   9.408  32.192   3.742
10546W        W63442  27.122  27.593   9.136
10547W        W63443   5.810  13.992   1.735
10548W        W63444  14.379   9.172   0.515
10549W        W63445  12.452  32.225   0.606
10550W        W63446  13.605   9.338   1.944
10551W        W63447   0.732   6.552   9.897
10552W        W63448  20.887   1.048   3.576
10553W        W63449  31.670   8.823   8.329
10554W        W63450   1.263  15.971   1.572
10555W        W63451   8.753  12.051   1.971
10556W        W63452   7.552   3.929   7.270
10557W        W63453  25.143   2.120   3.643
10558W        W63454   8.540  24.443   1.549
10559W        W63455  32.054  19.790  10.211
10560W        W63456  16.766  27.245   9.603
10561W        W63457  25.557  24.045   8.581
10562W        W63458   8.367  13.674   1.042
10563W        W63459  13.063  14.338   0.301
10564W        W63460   3.109  25.069   2.050
10565W        W63461  25.544  16.936   0.531
10566W        W63462  18.482  25.385   7.977
10567W        W63463  23.205  29.142   0.063
10568W        W63464  30.860  15.278   8.142
10569W        W63465   1.950  33.371   1.564
10570W        W63466   2.660  25.361   1.713
10571W        W63467   2.736  33.657   1.786
10572W        W63468  11.661  33.399  10.234
10573W        W63469   4.579  30.703   0.020
10574W        W63470   4.605  32.305   9.511
10575W        W63471  29.426  10.762   3.012
10576W        W63472  29.056  12.339   1.715
10577W        W63473   9.395  32.115   9.749
10578W        W63474   3.698  34.685   0.401
10579W        W63475  29.281   0.782   1.064
10580W        W63476  12.770  23.942   8.097
10581W        W63477  19.421  27.661   9.779
10582W        W63478   0.818  24.762   9.676
10583W        W63479  27.364   9.319   8.547
10584W        W63480   8.691  25.357  10.264
10585W        W63481  35.101  10.097   7.976
10586W        W63482   8.422  18.005   1.278
10587W        W63483  21.838  28.496   1.225
10588W        W63484   0.540  15.135   8.159
10589W        W63485  10.432  30.114   3.382
10590W        W63486   6.213  23.783   0.690
10591W        W63487   0.528  16.300  10.124
10592W        W63488  12.704   5.069   1.460
10593W        W63489  17.483   0.570   1.651
10594W        W63490   0.106  16.178   9.938
10595W        W63491  33.463   4.703   3.184
10596W        W63492  29.839  23.587   2.917
10597W        W63493  32.918  14.222   1.407
10598W        W63494  34.972  15.802   1.292
10599W        W63495  20.138  20.404   8.331
10600W        W63496  20.040   1.244   1.612
10601W        W63497   4.244   9.445   8.335
10602W        W63498   8.219  15.880   1.398
10603W        W63499   3.739   2.425   9.638
10604W        W63500  10.799  10.602   8.360
10605W        W63501   5.219   5.236   8.332
10606W        W63502  33.013  28.035   3.599
10607W        W63503   2.274  34.807   8.343
10608W        W63504  28.157  13.003  10.194
10609W        W63505  14.880  20.738   0.425
10610W        W63506  31.540  32.819   7.345
10611W        W63507  11.885   6.768   8.070
10612W        W63508   7.958   1.379   7.427
10613W        W63509   5.706   9.919   0.375
10614W        W63510  14.212   7.006   1.638
10615W        W63511  23.117   7.459   8.071
10616W        W63512   3.131  33.939   3.861
10617W        W63513   6.557  24.837   2.441
10618W        W63514   6.369  33.114   7.276
10619W        W63515   9.352  33.943   1.694
10620W        W63516  26.710  31.268   1.837
10621W        W63517   5.283   4.222   9.213
10622W        W63518  25.964   2.869   1.886
10623W        W63519  20.572  34.442   0.476
10624W        W63520  27.267  26.662   9.568
10625W        W63521  25.816  14.165   2.802
10626W        W63522  25.399  22.140   2.510
10627W        W63523  32.929  25.320   2.352
10628W        W63524  29.877  15.331   1.570
10629W        W63525  17.125   4.952   8.769
10630W        W63526  24.959  10.021   3.136
10631W        W63527   5.826  18.984   8.507
10632W        W63528   9.977   6.652   2.790
10633W        W63529  35.640   1.362   0.192
10634W        W63530   6.205  34.292   9.912
10635W        W63531  28.893  30.793   1.918
10636W        W63532  23.780   6.820   8.236
10637W        W63533  22.207   8.025   7.885
10638W        W63534  29.803  30.751   2.041
10639W        W63535  25.528  25.602   3.258
10640W        W63536  14.612  28.975   9.696
10641W        W63537  22.123  15.463   0.320
10642W        W63538   5.727  16.939  10.205
10643W        W63539   0.997  28.347   7.743
10644W        W63540  20.922   6.592   0.252
10645W        W63541  24.897  31.737   9.275
10646W        W63542  28.787   1.660   1.069
10647W        W63543   0.127  17.682   8.052
10648W        W63544  23.711  10.043   7.906
10649W        W63545  26.134  33.122   9.783
10650W        W63546  31.033  10.083   1.744
10651W        W63547   8.484   7.457   9.856
10652W        W63548  22.497   8.031   0.780
10653W        W63549  13.911  12.247   9.261
10654W        W63550  26.441  30.936   8.134
10655W        W63551  30.594   2.299  10.282
10656W        W63552  31.036  29.021   8.421
10657W        W63553  19.222  22.089   7.944
10658W        W63554  18.961  28.613   8.479
10659W        W63555  18.596   5.023   7.407
10660W        W63556  29.446  28.490   0.578
10661W        W63557  25.254   5.731   9.329
10662W        W63558  15.499  33.620   9.640
10663W        W63559   5.653  16.553   9.430
10664W        W63560  28.011  34.081  10.208
10665W        W63561   9.514  14.190   1.688
10666W        W63562   1.702   3.440   8.538
10667W        W63563   9.009   3.885   7.655
10668W        W63564   6.720  17.894   9.645
10669W        W63565  25.238  30.131   8.581
10670W        W63566  17.538   1.434   1.989
10671W        W63567  13.532   1.232   8.705
10672W        W63568  34.249   8.842   0.711
10673W        W63569  26.284  17.683   2.604
10674W        W63570  18.290  25.903   8.937
10675W        W63571   0.049  21.261   2.432
10676W        W63572  34.561  15.439   2.533
10677W        W63573   3.348  19.364   1.851
10678W        W63574  33.797  19.623   3.930
10679W        W63575  30.112  30.456   7.374
10680W        W63576  30.544  11.678   8.437
10681W        W63577  28.773   0.369   8.912
10682W        W63578  30.319  10.231   0.461
10683W        W63579   4.521   6.724   0.709
10684W        W63580  30.557  23.594   9.361
10685W        W63581   1.254   3.977   1.844
10686W        W63582  27.567  28.866   1.121
10687W        W63583  26.463   4.197   8.322
10688W        W63584  14.247  24.779   7.400
10689W        W63585  12.490   1.778   0.334
10690W        W63586  35.741  32.746   3.320
10691W        W63587  30.100  20.617   9.423
10692W        W63588  19.795  12.132   1.688
10693W        W63589  27.859  22.954   1.317
10694W        W63590  17.332  12.645   1.870
10695W        W63591  15.510   8.005   8.541
10696W        W63592  16.817   2.921   1.760
10697W        W63593  10.061  26.825   8.058
10698W        W63594  26.886  19.807   2.902
10699W        W63595  34.994  15.613   9.330
10700W        W63596  22.307   0.128   2.414
10701W        W63597  34.523   8.269   0.967
10702W        W63598   0.849  35.703   2.406
10703W        W63599  28.074  20.766   1.680
10704W        W63600  22.791   8.512   1.073
10705W        W63601  29.068  34.811   0.790
10706W        W63602  14.871  16.459   9.133
10707W        W63603  18.936  34.566   2.180
10708W        W63604  31.537  34.691   9.879
10709W        W63605   8.461   2.367   0.081
10710W        W63606  27.920  22.530   9.516
10711W        W63607  16.392  14.417   3.388
10712W        W63608   3.498  10.879   1.588
10713W        W63609   7.879   0.935   7.176
10714W        W63610  10.046  23.979   0.441
10715W        W63611  24.987   5.481   8.297
10716W        W63612  23.859  28.340   7.877
10717W        W63613   0.172  20.831   8.470
10718W        W63614   0.545   5.131   8.485
10719W        W63615  18.566   4.454   2.499
10720W        W63616   6.068  26.109   9.466
10721W        W63617   1.330  17.736   0.262
10722W        W63618   7.705   6.258  10.323
10723W        W63619  31.210   4.599   8.618
10724W        W63620  12.159   6.458   2.817
10725W        W63621  15.504   7.555   0.485
10726W        W63622  16.565  28.363   9.012
10727W        W63623  27.795  16.914   1.077
10728W        W63624  14.385  34.978   9.952
10729W        W63625   0.956  27.240   0.540
10730W        W63626  15.417  25.168   8.588
10731W        W63627  11.260  11.704   2.046
10732W        W63628   5.226  10.119   0.452
10733W        W63629   5.475  11.238   2.989
10734W        W63630  21.677  14.175   7.206
10735W        W63631  10.260  26.514   7.279
10736W        W63632   3.107  24.640   0.980
10737W        W63633  11.927  27.171   1.779
10738W        W63634  29.170  16.009   9.559
10739W        W63635   6.755  25.161   9.034
10740W        W63636  27.586  25.783   1.836
10741W        W63637  19.630   7.857   2.271
10742W        W63638  10.932  13.699   7.505
10743W        W63639  17.757   8.041   2.882
10744W        W63640  30.382  27.309   9.515
10745W        W63641   5.251   7.525   7.526
10746W        W63642  25.406  15.351   9.793
10747W        W63643  29.845  22.985   8.602
10748W        W63644  23.207  14.429   8.218
10749W        W63645  24.170  13.568   3.302
10750W        W63646  10.071   9.907   7.766
10751W        W63647   6.492  30.233   0.246
10752W        W63648  27.973  11.702   0.137
10753W        W63649   9.069  25.386   9.864
10754W        W63650  24.793  20.198   0.420
10755W        W63651  35.374  27.662   1.288
10756W        W63652   6.971  10.541   9.847
10757W        W63653  33.789  17.098   0.512
10758W        W63654  29.617  20.345   9.260
10759W        W63655   2.278  14.298   1.507
10760W        W63656  35.208   8.435   9.757
10761W        W63657  34.853   3.974   8.635
10762W        W63658   7.568  30.207   8.543
10763W        W63659   1.368  11.059   1.006
10764W        W63660   7.390  26.569   9.192
10765W        W63661   9.886  29.479   0.202
10766W        W63662   2.486  30.815   8.867
10767W        W63663  24.710  11.424   0.098
10768W        W63664  34.827  17.873   7.936
10769W        W63665   3.597  29.237   7.723
10770W        W63666  10.354   5.242   2.885
10771W        W63667  33.333  24.358   7.678
10772W        W63668  35.704  29.914   0.038
10773W        W63669  29.478  22.718   8.813
10774W        W63670  16.683  35.109   9.630
10775W        W63671  25.813  14.147   1.646
10776W        W63672  35.832   5.291   0.349
10777W        W63673   3.697   9.227   9.413
10778W        W63674  31.010   1.153   9.096
10779W        W63675   3.839   7.345   0.027
10780W        W63676   3.826  28.565   3.460
10781W        W63677  23.373   0.272   2.240
10782W        W63678   7.447  10.390   1.341
10783W        W63679  13.351  33.936   0.476
10784W        W63680   5.851  27.655   8.498
10785W        W63681  21.636   0.045   8.529
10786W        W63682  19.193  17.173   8.136
10787W        W63683  25.498  12.174   0.060
10788W        W63684   6.497   4.005   2.896
10789W        W63685   5.092  32.217   1.385
10790W        W63686  28.512  18.803   8.427
10791W        W63687  22.108   0.439   7.390
10792W        W63688  12.133   5.657   0.839
10793W        W63689   2.825  35.927   2.906
10794W        W63690  35.904  18.270   8.840
10795W        W63691   4.368  22.066   2.678
10796W        W63692  29.517  32.008   0.375
10797W        W63693   2.146   0.195   0.949
10798W        W63694  17.419   0.106   9.350
10799W        W63695  31.539   6.399   9.136
10800W        W63696  31.234  27.890   2.354
10801W        W63697  32.130  23.526   0.027
10802W        W63698  22.979  29.285   8.485
10803W        W63699   4.502  34.306   9.037
10804W        W63700   1.685  12.855   2.137
10805W        W63701  15.753  12.317   2.588
10806W        W63702  14.378   0.515   1.478
10807W        W63703  16.311  14.779   3.005
10808W        W63704   1.152  25.767   1.127
10809W        W63705  15.532   4.967   2.784
10810W        W63706  10.511  35.690   2.334
10811W        W63707  19.710  28.008   7.397
10812W        W63708  16.010  18.895   9.204
10813W        W63709  25.783   2.523   0.371
10814W        W63710  17.599   4.742   0.119
10815W        W63711  31.019  26.274   3.307
10816W        W63712  32.060  26.623   3.985
10817W        W63713  35.939  11.763   1.921
10818W        W63714  21.453  13.289   2.795
10819W        W63715   4.208  23.617  10.184
10820W        W63716   6.695  34.056  10.033
10821W        W63717   8.159  25.240   9.941
10822W        W63718   7.100  18.813   2.470
10823W        W63719  21.242  17.494   9.984
10824W        W63720  27.502   3.647   8.045
10825W        W63721  17.736  17.631   3.387
10826W        W63722  34.812   9.141  10.215
10827W        W63723   2.398  21.426   8.583
10828W        W63724  27.935  22.257   8.262
10829W        W63725  30.387  28.613   9.306
10830W        W63726  12.421  17.366   0.536
10831W        W63727  12.105   8.698   9.553
10832W        W63728   5.079  13.857   9.798
10833W        W63729  14.134  10.754   9.329
10834W        W63730  22.170  26.802   7.657
10835W        W63731   1.450  14.668   0.817
10836W        W63732  22.522  21.790   9.898
10837W        W63733  27.681  32.489   0.840
10838W        W63734  28.096  18.555   0.820
10839W        W63735  20.985   9.380   7.412
10840W        W63736   8.587  19.083   8.598
10841W        W63737   0.941  27.035   7.999
10842W        W63738   7.098  20.120   0.303
10843W        W63739  35.434  29.482   0.072
10844W        W63740  12.300  14.242   8.572
10845W        W63741  32.273  32.913   9.001
10846W        W63742  12.342  35.659   1.343
10847W        W63743   3.608  20.668   3.128
10848W        W63744  32.501  27.364   9.087
10849W        W63745  17.096   7.335   0.653
10850W        W63746   5.159  33.773   7.674
10851W        W63747   5.393  15.238   9.108
10852W        W63748  31.599  25.399   1.571
10853W        W63749   7.904   3.174   7.983
10854W        W63750  28.457  28.104   8.868
10855W        W63751  10.145   3.059   8.505
10856W        W63752   4.757   9.441   0.518
10857W        W63753  17.378  19.100   3.289
10858W        W63754  13.855   0.011   0.081
10859W        W63755  35.404  17.846   2.848
10860W        W63756  10.647   5.612   0.645
10861W        W63757   9.330  22.228   9.320
10862W        W63758  19.095   5.714   7.793
10863W        W63759  20.893   3.061   0.372
10864W        W63760  27.439   5.457   9.286
10865W        W63761   1.251  35.004   2.407
10866W        W63762   1.026  28.417   9.647
10867W        W63763  29.814  32.277   0.981
10868W        W63764  19.810   5.798   9.968
10869W        W63765  22.078   7.440   0.921
10870W        W63766   3.147  18.631   0.297
10871W        W63767  26.282  24.949   1.407
10872W        W63768  27.198  30.557   1.174
10873W        W63769  26.431  20.216   1.114
10874W        W63770  24.753  15.065   8.493
10875W        W63771  16.735  16.000  10.214
10876W        W63772  19.248  31.192   2.239
10877W        W63773   4.781  28.355   9.042
10878W        W63774   0.325   6.792   0.362
10879W        W63775  27.860  23.834   8.769
10880W        W63776  17.935  26.894   9.174
10881W        W63777  16.410  11.293   8.258
10882W        W63778  28.945   9.851   9.005
10883W        W63779  33.796  34.968   1.278
10884W        W63780   7.231  35.247   1.349
10885W        W63781  25.435  17.137   9.381
10886W        W63782   9.743  28.997   9.308
10887W        W63783   3.822  32.508   9.027
10888W        W63784  19.240  14.259   3.662
10889W        W63785  25.673  13.605   7.475
10890W        W63786  35.601  17.951   8.285
10891W        W63787  28.621   1.306   1.465
10892W        W63788  29.129  27.558   1.553
10893W        W63789  24.635  12.601   9.816
10894W        W63790   6.800  20.572   7.715
10895W        W63791  21.193   2.562   2.449
10896W        W63792   8.047  24.286   8.957
10897W        W63793  24.896   8.785   2.571
10898W        W63794   6.114  34.342   3.023
10899W        W63795   9.993  19.640   8.290
10900W        W63796   9.679  30.821   9.440
10901W        W63797   8.544  20.626   1.081
10902W        W63798   1.763   5.655   2.050
10903W        W63799   5.185  27.176   1.498
10904W        W63800  31.770  14.929   2.714
10905W        W63801  32.187  31.416   0.668
10906W        W63802  14.518  11.283   8.303
10907W        W63803   4.037  25.082   0.031
10908W        W63804  21.951  35.652   7.303
10909W        W63805  19.796  25.983   3.968
10910W        W63806   2.323  16.299  10.056
10911W        W63807  24.095   6.590   0.782
10912W        W63808  22.443  34.153   1.908
10913W        W63809  23.329  13.560   9.196
10914W        W63810  19.092   3.769   0.218
10915W        W63811  32.787  26.423   0.845
10916W        W63812   2.592  21.840   0.204
10917W        W63813  25.001  24.704   2.146
10918W        W63814  34.454   7.551   0.655
10919W        W63815  30.510  24.568   0.996
10920W        W63816  30.742  31.099   2.112
10921W        W63817  30.901   9.300   8.927
10922W        W63818  24.215   2.772   7.999
10923W        W63819   8.812   2.065   3.382
10924W        W63820  13.096  18.977   8.712
10925W        W63821  21.457  14.193   0.093
10926W        W63822  25.092  32.782  10.195
10927W        W63823  13.552  24.172   0.074
10928W        W63824  32.224  30.937   8.601
10929W        W63825  31.438  30.034   1.760
10930W        W63826   3.069  10.210   3.114
10931W        W63827  29.823  12.232   2.143
10932W        W63828  10.196  29.843   8.890
10933W        W63829  26.800  31.014   0.354
10934W        W63830  16.682  31.514   2.310
10935W        W63831  27.066  11.606   9.664
10936W        W63832  29.452  24.156   2.383
10937W        W63833  19.192   8.334   8.348
10938W        W63834  25.072  31.312   1.882
10939W        W63835  20.611   8.545   8.955
10940W        W63836  23.046  34.406   0.446
10941W        W63837  25.224  17.420   1.268
10942W        W63838  28.926  25.538   3.166
10943W        W63839  24.210  23.727   8.807
10944W        W63840  13.671  17.437   1.300
10945W        W63841  17.236   8.436   3.586
10946W        W63842   7.491  33.717   2.894
10947W        W63843  16.055  34.767   7.174
10948W        W63844  28.809  16.921   2.160
10949W        W63845  30.547  21.726   2.670
10950W        W63846  25.245  34.533   0.526
10951W        W63847  28.768   1.248   9.299
10952W        W63848  29.483  35.634   1.192
10953W        W63849   2.548   6.384   0.221
10954W        W63850   2.603  32.369   3.856
10955W        W63851   2.550  23.946   8.212
10956W        W63852   7.066  14.957   0.731
10957W        W63853  27.363   9.561   0.465
10958W        W63854  21.573  31.100   8.573
10959W        W63855  14.115  11.014   1.416
10960W        W63856  18.826   7.526  10.279
10961W        W63857  30.332  33.192   1.492
10962W        W63858   0.989  22.852   8.905
10963W        W63859   0.089  28.072   3.146
10964W        W63860   5.603  29.022   2.272
10965W        W63861  30.226  14.836  10.249
10966W        W63862  23.476   7.340   3.049
10967W        W63863  31.359  16.085   7.958
10968W        W63864   8.796  13.316   1.046
10969W        W63865   9.683  24.050   0.096
10970W        W63866  12.929  34.226   3.887
10971W        W63867   9.345  34.503   0.769
10972W        W63868   3.837  19.496   9.774
10973W        W63869   3.579   5.669   2.152
10974W        W63870   7.092  20.194   9.818
10975W        W63871  29.368  19.332   2.401
10976W        W63872  13.998  20.741   2.206
10977W        W63873   1.863   3.783   7.787
10978W        W63874  30.474   9.035   8.913
10979W        W63875   0.477  19.735   4.048
10980W        W63876  29.174  23.125   2.056
10981W        W63877   1.601  33.128   1.868
10982W        W63878  11.325  30.691   9.489
10983W        W63879   2.788  33.176   0.355
10984W        W63880  31.136  25.251   8.847
10985W        W63881  19.755   3.697   1.342
10986W        W63882   5.063  27.243   8.634
10987W        W63883  16.173  16.629   3.787
10988W        W63884   7.354  29.368   0.763
10989W        W63885  14.534  35.747   9.923
10990W        W63886  16.885  13.616   7.887
10991W        W63887   1.296  13.464   9.398
10992W        W63888  13.672  11.349   0.556
10993W        W63889   8.867  26.137   2.642
10994W        W63890  27.769   9.438   8.948
10995W        W63891   2.281  19.418   1.379
10996W        W63892  32.153   4.976   3.021
10997W        W63893  19.439   6.965   9.618
10998W        W63894   9.177   7.614   0.932
10999W        W63895  28.330  18.811   1.975
11000W        W63896  25.468  20.441   1.584
11001W        W63897  18.209   7.990   8.489
11002W        W63898  11.419  32.026   9.631
11003W        W63899  29.346   3.287   2.658
11004W        W63900  16.158  32.300   7.820
11005W        W63901  17.449  19.712   8.093
11006W        W63902  32.347   6.586   7.965
11007W        W63903   3.155  35.597   1.381
11008W        W63904   0.088  26.977   1.898
11009W        W63905  24.847   5.099   0.344
11010W        W63906  32.374  27.374   2.642
11011W        W63907  20.370   7.317   1.700
11012W        W63908  32.978  21.915   9.376
11013W        W63909  12.168   7.695   9.876
11014W        W63910  34.875  29.765   3.778
11015W        W63911  18.986  29.190   9.433
11016W        W63912  29.947  22.236   0.129
11017W        W63913  21.233  17.755   1.450
11018W        W63914  24.621   4.328   8.762
11019W        W63915  20.552  27.696   9.849
11020W        W63916  11.349  28.899   8.005
11021W        W63917  29.107   6.396   8.885
11022W        W63918  26.975  15.758  10.149
11023W        W63919   9.691  28.860   2.745
11024W        W63920  31.066  33.415   2.007
11025W        W63921  22.290  31.648   0.230
11026W        W63922  13.446  27.477   9.478
11027W        W63923   3.102  13.505   1.190
11028W        W63924  23.483  32.316   2.526
11029W        W63925  22.233   1.880   3.292
11030W        W63926   3.689   6.891  10.172
11031W        W63927  13.120  30.659   2.741
11032W        W63928  24.097  12.140   3.934
11033W        W63929  29.290  18.517   8.458
11034W        W63930   1.232   4.354  10.305
11035W        W63931  35.809   7.357   0.486
11036W        W63932  25.212  33.899   1.547
11037W        W63933   5.257   3.529   7.881
11038W        W63934  31.330  26.554   0.680
11039W        W63935  18.795  14.062   7.535
11040W        W63936  22.038  22.357   1.707
11041W        W63937  32.179  22.679   7.869
11042W        W63938  14.084  19.915   8.251
11043W        W63939  29.044  21.480   9.233
11044W        W63940  19.140   2.767   8.804
11045W        W63941  28.508  14.851   9.425
11046W        W63942  17.646  22.964   2.841
11047W        W63943   3.096   0.771   9.672
11048W        W63944  22.760  26.509   8.710
11049W        W63945  30.049  18.268   8.901
11050W        W63946  28.973  12.880   9.536
11051W        W63947   8.027  17.790   0.888
11052W        W63948  33.889  13.387   2.164
11053W        W63949  10.294  10.561  10.190
11054W        W63950  26.481  25.498   8.910
11055W        W63951  35.035   4.002   2.617
11056W        W63952   7.369   9.741   3.247
11057W        W63953  33.734   1.835   8.746
11058W        W63954  11.143   7.559   3.452
11059W        W63955  13.130  22.705   1.176
11060W        W63956  24.801  35.776   7.720
11061W        W63957  26.165  33.691   1.635
11062W        W63958  15.977  17.468  10.017
11063W        W63959  30.919  10.721   9.033
11064W        W63960  24.898  17.023   0.377
11065W        W63961  12.081  24.274   7.656
11066W        W63962  27.243   8.395   1.882
11067W        W63963  17.698   3.095   3.193
11068W        W63964  21.739  15.089   0.063
11069W        W63965  17.972  33.837   8.608
11070W        W63966  17.432   8.916   2.530
11071W        W63967  34.835   3.142   2.955
11072W        W63968   0.142  18.563   9.162
11073W        W63969  13.819  18.824   0.538
11074W        W63970  32.261  14.938   9.036
11075W        W63971  16.025   2.108   0.198
11076W        W63972  16.089   4.088   1.395
11077W        W63973  15.506  28.346   2.471
11078W        W63974  13.578  27.364   9.949
11079W        W63975  19.650   0.661   2.632
11080W        W63976  11.575  34.065   9.254
11081W        W63977  11.596   9.906   9.347
11082W        W63978  15.234   3.946   3.854
11083W        W63979   1.990   0.271   8.195
11084W        W63980  17.720  14.002   8.296
11085W        W63981  12.304   2.083   2.087
11086W        W63982  34.578  33.141   2.421
11087W        W63983  25.544   9.480   0.193
11088W        W63984  13.508  19.373   3.230
11089W        W63985  14.733  12.798   8.082
11090W        W63986  15.771  27.355   7.742
11091W        W63987  33.967  12.541   0.054
11092W        W63988  26.221  18.918   0.024
11093W        W63989  13.184   9.423   7.878
11094W        W63990  32.954  32.694   7.422
11095W        W63991  17.302  34.595   9.379
11096W        W63992  25.845  28.559   8.376
11097W        W63993  25.651   8.491   1.032
11098W        W63994   7.620  25.162   9.930
11099W        W63995  25.446  20.308   9.156
11100W        W63996  14.770   5.265  10.254
11101W        W63997  32.977  28.236  10.099
11102W        W63998  10.890  19.577   2.480
11103W        W63999  31.751  25.911   2.921
11104W        W64000  11.741   1.943   8.068
11105W        W64001  29.002  12.666   1.344
11106W        W64002  33.665  22.469   1.207
11107W        W64003  18.167  28.563   3.041
11108W        W64004  28.205  19.434   3.257
11109W        W64005  35.600  29.568   9.808
11110W        W64006   2.967  28.987   8.399
11111W        W64007  29.117  26.390   8.713
11112W        W64008   1.703  10.759   0.760
11113W        W64009  17.110  20.657   1.884
11114W        W64010   2.278  19.558   7.933
11115W        W64011  25.990  26.383   2.956
11116W        W64012   0.820   5.449   9.107
11117W        W64013  19.326  26.167   2.393
11118W        W64014  24.947  17.853   3.508
11119W        W64015   4.023  12.115   2.082
11120W        W64016  25.280   2.095   9.285
11121W        W64017   0.511  25.745   8.132
11122W        W64018  31.219   2.406   2.969
11123W        W64019  31.747   3.375   3.152
11124W        W64020  10.840   9.337   3.296
11125W        W64021  30.271   3.757   0.466
11126W        W64022  23.476   2.118   0.973
11127W        W64023  28.563  23.578   1.552
11128W        W64024  16.193  33.257   2.358
11129W        W64025   1.483  15.426   0.047
11130W        W64026  26.285   6.849   2.538
11131W        W64027  28.108  11.030   0.372
11132W        W64028  30.205  18.829   2.272
11133W        W64029   0.842   7.981   2.843
11134W        W64030   5.470  33.490   7.422
11135W        W64031   8.792  11.118   9.138
11136W        W64032  25.451   6.282   8.048
11137W        W64033  24.910  33.828   2.500
11138W        W64034  16.144  22.000   2.022
11139W        W64035   8.062  10.875   0.075
11140W        W64036   2.726   2.676   0.999
11141W        W64037  11.514  14.758   3.436
11142W        W64038  18.990   8.705   1.369
11143W        W64039  35.657  24.187   8.683
11144W        W64040   5.798  24.002   7.864
11145W        W64041  29.198  20.909   7.916
11146W        W64042   7.848   6.658   8.102
11147W        W64043  21.156  27.091   7.561
11148W        W64044  33.510  18.300   0.663
11149W        W64045  18.760  19.165   0.081
11150W        W64046   8.913  20.093   2.749
11151W        W64047  11.773   0.483   9.070
11152W        W64048   0.074   5.546   9.644
11153W        W64049   8.205  15.911  10.013
11154W        W64050  30.735  27.494   0.321
11155W        W64051  13.322  16.026   3.582
11156W        W64052  12.012  22.544   1.528
11157W        W64053  34.205  12.568   7.061
11158W        W64054   9.962  33.811   3.246
11159W        W64055  16.132  13.292   1.389
11160W        W64056  26.879  33.578   9.268
11161W        W64057  32.177  24.665   2.643
11162W        W64058  32.602  17.986   2.375
11163W        W64059  11.015  28.700   0.522
11164W        W64060   8.863  18.397   7.885
11165W        W64061   6.065   9.027   0.537
11166W        W64062   3.839   7.366   0.578
11167W        W64063   1.638  21.995   9.090
11168W        W64064  31.233  12.119   3.856
11169W        W64065  12.855  29.610   9.310
11170W        W64066   4.038  35.363   8.109
11171W        W64067  24.738  30.204   6.958
11172W        W64068   9.879  32.559   0.445
11173W        W64069  30.699  33.937   1.998
11174W        W64070  20.968   8.068  10.100
11175W        W64071   1.609  13.341   0.188
11176W        W64072  11.683   7.310   0.204
11177W        W64073  34.802  18.547   2.526
11178W        W64074  15.778  27.082  10.063
11179W        W64075  34.502   0.526   9.260
11180W        W64076   4.197  11.441   8.673
11181W        W64077  15.998   7.263  10.093
11182W        W64078  18.442  17.724   0.360
11183W        W64079  17.708  31.934   1.638
11184W        W64080   9.672  18.654   1.859
11185W        W64081  12.124  30.445   8.864
11186W        W64082   9.759  17.522   0.961
11187W        W64083  22.201  24.380   2.579
11188W        W64084  31.358   5.682   2.400
11189W        W64085  11.556  32.843   1.025
11190W        W64086  14.178  21.353   2.069
11191W        W64087   2.581   2.972   9.357
11192W        W64088  10.224   8.610   2.755
11193W        W64089  16.084  28.381   8.855
11194W        W64090   8.245  10.474   2.449
11195W        W64091   5.556   6.418   7.999
11196W        W64092  23.783  26.852   1.033
11197W        W64093  16.795  32.118   0.238
11198W        W64094  26.430   2.932   8.202
11199W        W64095   2.749   3.932   8.034
11200W        W64096  32.538  20.531   2.884
11201W        W64097  16.134  11.571  10.213
11202W        W64098  26.147  22.065   2.456
11203W        W64099  30.842   7.614   9.223
11204W        W64100   5.509  25.390   9.285
11205W        W64101  25.847  20.249   0.566
11206W        W64102  19.105  18.441   9.322
11207W        W64103  27.180  20.860   3.462
11208W        W64104  27.731  12.700   0.536
11209W        W64105  20.123  22.449   3.462
11210W        W64106  24.598  35.443   9.880
11211W        W64107  20.547   2.886   9.690
11212W        W64108   4.070  35.556   1.446
11213W        W64109  34.608  31.396   3.289
11214W        W64110  20.602   6.935   0.034
11215W        W64111  33.198   6.209   8.888
11216W        W64112  32.880  12.797   0.555
11217W        W64113  14.836  11.475   0.619
11218W        W64114  13.908   9.710   9.896
11219W        W64115   7.743  23.159   2.865
11220W        W64116  21.163  10.382   1.808
11221W        W64117  21.661   9.704   9.041
11222W        W64118   9.118   7.532   0.127
11223W        W64119  14.603  26.647   1.330
11224W        W64120   4.077  15.523   3.160
11225W        W64121  33.259  18.875   3.297
11226W        W64122   7.410   9.093   8.177
11227W        W64123   5.364  21.667   8.607
11228W        W64124  10.861  19.490   9.372
11229W        W64125   7.308   5.783   0.647
11230W        W64126   5.729  29.382   0.192
11231W        W64127   5.720  15.229   0.460
11232W        W64128   8.923  12.544   3.065
11233W        W64129  21.293  13.963   0.925
11234W        W64130   9.464  18.924   2.625
11235W        W64131  15.936  34.725   3.080
11236W        W64132   0.541   0.837   7.524
11237W        W64133   5.514  24.240   8.219
11238W        W64134  35.592  14.864   8.435
11239W        W64135  29.463  14.285   1.850
11240W        W64136  35.545  10.467   8.351
11241W        W64137  14.286   3.327   9.015
11242W        W64138   4.666  27.974   0.555
11243W        W64139   8.848  19.392  10.175
11244W        W64140   8.860   0.067   9.706
11245W        W64141  32.902  27.360   2.371
11246W        W64142  26.962   4.724   9.221
11247W        W64143  20.233   3.114   8.623
11248W        W64144  20.405  24.898  10.059
11249W        W64145   3.327  20.052   1.685
11250W        W64146  17.020   6.666  10.337
11251W        W64147  33.410  27.814   9.979
11252W        W64148  19.631  34.506   0.379
11253W        W64149   6.300  22.743   1.392
11254W        W64150  21.998  13.782   8.585
11255W        W64151   0.442  25.182   1.278
11256W        W64152   4.633   2.929  10.277
11257W        W64153  23.827   6.156   9.779
11258W        W64154   4.868   4.270   2.293
11259W        W64155  18.763  15.536   8.569
11260W        W64156  34.497  18.049   1.239
11261W        W64157  21.343   9.432   9.879
11262W        W64158  35.131  18.723   8.689
11263W        W64159   5.087  30.569  10.133
11264W        W64160   8.913  35.505   8.695
11265W        W64161   1.597  32.308   2.490
11266W        W64162   8.203  13.404   1.665
11267W        W64163  25.029  10.521   1.902
11268W        W64164   0.392  13.533  10.253
11269W        W64165  10.049  35.226   6.883
11270W        W64166  12.377   9.688   3.333
11271W        W64167  14.097  29.955   1.741
11272W        W64168  34.359  13.201   1.821
11273W        W64169  31.559   2.506   1.175
11274W        W64170   5.497  33.576   9.798
11275W        W64171  22.197  29.265   8.085
11276W        W64172  35.024  20.175   9.810
11277W        W64173  27.024  17.817   2.473
11278W        W64174  30.108  10.052   2.691
11279W        W64175  25.717  27.993   9.054
11280W        W64176  32.533   9.072   9.493
11281W        W64177  23.637  32.002   7.743
11282W        W64178  16.807   0.077   0.543
11283W        W64179  22.765  14.331   3.020
11284W        W64180   2.085  30.735   8.577
11285W        W64181  20.803  26.362   1.399
11286W        W64182  24.856  23.898   0.714
11287W        W64183   6.638   6.415   2.358
11288W        W64184  19.034  31.737   1.389
11289W        W64185  28.549  29.186  10.260
11290W        W64186  31.269  34.422   2.880
11291W        W64187   0.340  14.825   1.254
11292W        W64188  24.575  32.830  10.158
11293W        W64189   6.288  11.674   9.490
11294W        W64190   5.298   0.511   2.207
11295W        W64191   8.445  26.634   8.674
11296W        W64192  35.770   3.129   8.058
11297W        W64193  14.164  10.194   8.398
11298W        W64194   0.009  17.651   3.517
11299W        W64195  24.903  26.086   8.933
11300W        W64196  13.346  14.929   2.348
11301W        W64197  34.408   6.188   2.500
11302W        W64198  16.245  19.684   3.708
11303W        W64199  24.256   4.594   1.635
11304W        W64200   7.706   8.330   7.695
11305W        W64201  12.841   0.787  10.150
11306W        W64202  31.270  18.629   2.646
11307W        W64203  25.037   4.043   7.573
11308W        W64204   3.073  29.226   2.167
11309W        W64205  15.793   9.224   2.070
11310W        W64206  21.166  12.850   9.411
11311W        W64207   8.576  18.856   9.597
11312W        W64208  26.415  25.986   9.095
11313W        W64209   6.357  22.981   9.292
11314W        W64210  25.842   3.143   0.483
11315W        W64211  21.312  35.411   0.028
11316W        W64212   5.912  10.963   2.968
11317W        W64213  35.478  14.370   8.487
11318W        W64214  29.380   9.931   8.688
11319W        W64215   8.484  30.871   0.875
11320W        W64216  29.584   6.694  10.251
11321W        W64217  12.997   2.498   1.499
11322W        W64218   1.598  17.095   2.575
11323W        W64219  29.836  10.211   1.939
11324W        W64220   6.508  28.583   1.189
11325W        W64221  25.087  35.374   1.114
11326W        W64222  29.875  16.196   1.530
11327W        W64223  29.289   5.881   8.672
11328W        W64224  30.206   7.555   9.243
11329W        W64225   3.668   4.239   9.376
11330W        W64226   8.194  30.148  10.139
11331W        W64227  17.969  18.507   2.524
11332W        W64228  27.725   1.536   0.658
11333W        W64229  34.032  30.607   3.447
11334W        W64230  22.792   0.707   9.861
11335W        W64231  18.363  13.957   9.907
11336W        W64232  19.391   6.708   0.235
11337W        W64233  21.603  32.658   8.656
11338W        W64234   2.878  29.715   2.153
11339W        W64235  35.479  31.086   7.983
11340W        W64236  17.037  20.139   1.826
11341W        W64237  17.856  31.184   2.818
11342W        W64238  34.744  13.139   1.446
11343W        W64239  19.623  17.832   9.933
11344W        W64240  26.629  25.367   9.624
11345W        W64241  10.280   5.626   1.957
11346W        W64242  25.917   4.166   9.929
11347W        W64243  16.766  34.007   8.166
11348W        W64244   0.414  19.007   2.094
11349W        W64245   9.907  19.317   3.409
11350W        W64246  16.617   8.622   2.147
11351W        W64247  13.202   8.084   7.159
11352W        W64248  33.530  35.463   7.966
11353W        W64249  18.022   1.545   0.346
11354W        W64250  20.669  22.402   4.203
11355W        W64251   0.501  34.681   7.856
11356W        W64252  21.385   1.635   9.846
11357W        W64253  20.616   6.171   8.427
11358W        W64254  31.366  10.116  10.319
11359W        W64255   0.394   1.663   2.716
11360W        W64256  34.324  25.943   8.003
11361W        W64257   5.418  24.132   3.263
11362W        W64258  22.012  31.817   7.395
11363W        W64259  32.453   8.983   8.567
11364W        W64260  29.793  30.086   9.106
11365W        W64261   7.296  15.011  10.306
11366W        W64262   8.057  29.092   2.644
11367W        W64263   5.446  14.387   1.876
11368W        W64264   2.561   3.194   2.069
11369W        W64265  32.615  27.414   8.331
11370W        W64266   6.512  27.622   0.863
11371W        W64267  26.020   1.176   1.340
11372W        W64268  18.470   6.538   9.962
11373W        W64269  22.844  25.349   1.286
11374W        W64270  30.702   7.333   2.019
11375W        W64271  22.758  34.012   0.232
11376W        W64272  26.713  11.336   9.271
11377W        W64273   2.618  18.352   3.067
11378W        W64274  25.658   6.763   7.928
11379W        W64275  35.371  14.001   0.709
11380W        W64276  17.774  25.633   9.618
11381W        W64277  13.997   0.024   1.214
11382W        W64278  30.586  26.566   1.639
11383W        W64279  10.645  26.343   0.885
11384W        W64280  32.049   2.270   1.298
11385W        W64281  32.590  18.624   9.400
11386W        W64282  27.421  32.790   2.546
11387W        W64283  26.309  21.586   8.010
11388W        W64284  16.666  35.190   2.242
11389W        W64285  25.372  25.168   1.564
11390W        W64286  11.149  33.799   8.404
11391W        W64287   6.908   9.506   2.874
11392W        W64288  16.864  17.143   2.352
11393W        W64289  23.749  10.006  10.319
11394W        W64290  19.908   5.798   3.337
11395W        W64291  17.179  24.760   2.528
11396W        W64292   9.184  20.781   1.179
11397W        W64293  28.618   9.184   9.070
11398W        W64294  28.338   5.280   2.509
11399W        W64295  32.780   9.275   1.501
11400W        W64296   2.636  25.217   0.399
11401W        W64297   6.708   6.878   0.741
11402W        W64298  21.801  26.702   0.447
11403W        W64299  22.699  24.889   7.154
11404W        W64300  33.193  24.952   0.699
11405W        W64301  29.292  11.866   0.314
11406W        W64302  20.007  29.522   8.070
11407W        W64303  30.903  25.347   2.166
11408W        W64304  14.188  13.903   0.532
11409W        W64305  10.406   9.050   9.804
11410W        W64306  19.524   8.406   8.718
11411W        W64307  24.826   3.202   0.424
11412W        W64308  32.887  25.316   9.764
11413W        W64309  19.255  18.548   1.501
11414W        W64310  17.097   8.619   7.766
11415W        W64311   3.987  25.536   0.161
11416W        W64312  24.548  15.457   3.615
11417W        W64313  29.899  27.847  10.190
11418W        W64314  14.740  27.186   7.707
11419W        W64315   7.060  24.717   0.645
11420W        W64316  13.446  33.519   9.433
11421W        W64317  27.141   5.156   9.046
11422W        W64318  35.445  20.446   1.947
11423W        W64319  17.355  32.781   2.713
11424W        W64320   0.579   7.000  10.154
11425W        W64321  14.641  22.147   1.682
11426W        W64322  16.608  10.465   9.035
11427W        W64323  28.418  32.335   1.918
11428W        W64324  25.359  15.022   2.629
11429W        W64325  13.871  23.041   8.254
11430W        W64326  25.241   4.898   3.661
11431W        W64327  12.777   6.961   9.904
11432W        W64328  31.498  27.538   3.593
11433W        W64329   5.921  22.566   8.508
11434W        W64330  22.897  10.846   8.445
11435W        W64331  26.345  29.827   1.863
11436W        W64332  33.753  20.691   0.389
11437W        W64333   3.949  15.227   8.893
11438W        W64334  14.448  35.933   0.960
11439W        W64335  13.922  13.053   6.910
11440W        W64336  35.507   1.538   7.415
11441W        W64337  11.130   3.187   7.858
11442W        W64338  10.172  35.836   0.491
11443W        W64339  13.226  34.548   1.781
11444W        W64340  11.116  12.989   9.184
11445W        W64341  33.711  20.348   2.811
11446W        W64342  24.298   2.791   7.502
11447W        W64343   2.918   6.228   8.610
11448W        W64344  19.313  23.202   1.666
11449W        W64345  21.707  16.847   8.684
11450W        W64346  10.069   3.350   0.627
11451W        W64347  30.677  27.403   1.332
11452W        W64348  31.765  18.547   0.295
11453W        W64349   3.102   6.033   1.705
11454W        W64350  23.508   2.960   8.856
11455W        W64351  29.171  12.962   3.414
11456W        W64352  11.975  25.793   0.527
11457W        W64353  11.439  20.644   2.040
11458W        W64354   9.544   6.523   1.973
11459W        W64355  19.342  17.655   3.837
11460W        W64356  31.152   3.329   2.795
11461W        W64357  22.839  23.683   3.459
11462W        W64358   4.515  23.181   0.240
11463W        W64359   2.241  20.542   3.626
11464W        W64360  20.964  35.339   8.938
11465W        W64361  18.693  18.051   2.796
11466W        W64362  31.409  29.375   3.858
11467W        W64363   7.743   0.841   0.702
11468W        W64364  11.461   4.214   2.018
11469W        W64365  12.144   7.500   3.114
11470W        W64366  12.812  31.030   1.481
11471W        W64367   7.526  20.977   9.754
11472W        W64368  20.895  16.768   1.873
11473W        W64369  35.991  18.849   1.529
11474W        W64370  25.035  17.242   3.820
11475W        W64371  25.128  14.268   0.335
11476W        W64372  18.351   2.041   0.260
11477W        W64373   8.510  22.218   2.348
11478W        W64374   6.941   6.720   9.699
11479W        W64375  34.113  14.194   2.218
11480W        W64376  25.505   5.920   3.743
11481W        W64377  24.117   6.039   2.839
11482W        W64378  26.568  14.240   2.356
11483W        W64379   6.873  19.890   8.891
11484W        W64380   8.062  17.440   8.379
11485W        W64381   0.737   1.953   0.543
11486W        W64382  12.198  25.379   7.342
11487W        W64383  34.791   6.710   8.187
11488W        W64384  20.201  16.489   8.216
11489W        W64385  23.686   1.794   8.020
11490W        W64386   5.984  30.010  10.266
11491W        W64387  16.792  13.545   2.294
11492W        W64388  31.928  21.504   2.301
11493W        W64389  10.185   6.241   8.778
11494W        W64390   1.641   7.810   9.889
11495W        W64391  27.141  17.541   3.420
11496W        W64392  17.393  29.961   2.225
11497W        W64393  33.072  34.461   0.553
11498W        W64394  29.893  26.294   1.986
11499W        W64395   1.982   3.721   3.238
11500W        W64396   5.793  15.818   0.600
11501W        W64397  32.216   3.941   1.156
11502W        W64398  11.249  22.340   7.276
11503W        W64399  26.476  24.555   9.368
11504W        W64400  11.150  24.700   0.855
11505W        W64401  15.715   5.176   9.155
11506W        W64402  13.454  32.883   0.134
11507W        W64403   6.319   9.944  10.150
11508W        W64404  31.790   6.037   7.531
11509W        W64405   3.020  16.276   3.686
11510W        W64406   8.541  16.512   9.260
11511W        W64407  20.388   3.081   0.648
11512W        W64408  31.503  17.766   1.758
11513W        W64409   1.126  31.916   9.674
11514W        W64410  11.191  26.025   9.754
11515W        W64411  16.990  11.205   2.664
11516W        W64412   6.656  30.524   8.302
11517W        W64413  26.650  21.304   2.625
11518W        W64414  23.333  27.222  10.061
11519W        W64415  22.724  22.987   0.614
11520W        W64416  16.936  12.365   2.959
11521W        W64417  14.613   4.046   2.954
11522W        W64418  24.083  13.953   0.876
11523W        W64419  26.461  16.169   8.063
11524W        W64420   1.251  21.477   1.321
11525W        W64421  34.129  13.394   2.898
11526W        W64422  11.221   7.490   8.374
11527W        W64423  15.120  27.479   3.408
11528W        W64424   7.439  23.342   9.092
11529W        W64425   0.840  12.142   1.659
11530W        W64426  30.666  28.249   1.609
11531W        W64427  29.695  10.686   8.974
11532W        W64428  28.001   7.755   9.377
11533W        W64429  15.257   2.948   3.189
11534W        W64430  13.541  35.354   2.114
11535W        W64431  33.021  11.998  10.328
11536W        W64432  32.760   5.495   9.389
11537W        W64433   7.844  24.502   3.181
11538W        W64434   6.614  30.026   0.940
11539W        W64435  29.793  25.170   8.260
11540W        W64436   3.157  25.592   7.712
11541W        W64437  19.340  18.132   0.645
11542W        W64438   6.189   2.022   0.075
11543W        W64439  30.536  35.766   0.363
11544W        W64440   8.353   8.236  10.323
11545W        W64441  34.034  31.827   0.418
11546W        W64442  31.958  29.841   9.427
11547W        W64443  33.840  31.478   1.325
11548W        W64444   4.710   2.914   1.261
11549W        W64445  21.420  20.945   1.574
11550W        W64446  34.944  34.744   8.740
11551W        W64447  12.201  11.815   1.550
11552W        W64448  30.159  34.409   8.748
11553W        W64449  30.971  23.836   9.385
11554W        W64450  31.476  20.098   2.347
11555W        W64451  13.528   2.053   1.560
11556W        W64452   7.407  15.724   9.023
11557W        W64453   0.300   2.894   9.994
11558W        W64454  32.965   7.826   0.133
11559W        W64455  12.108  30.327   9.695
11560W        W64456  19.050  22.549   1.794
11561W        W64457   3.690   7.055   2.245
11562W        W64458   5.296   8.435   9.438
11563W        W64459  21.437  18.355   1.159
11564W        W64460  10.393  14.457   1.053
11565W        W64461  13.978  32.066   2.474
11566W        W64462   7.623  33.652   1.188
11567W        W64463  23.873  14.917   3.172
11568W        W64464   4.040  15.803   3.577
11569W        W64465  14.667  27.833   9.850
11570W        W64466  20.565  29.085   8.566
11571W        W64467  24.061  19.220   8.013
11572W        W64468  31.850  16.553   3.788
11573W        W64469  23.511   0.171   8.887
11574W        W64470  35.670  15.754   2.288
11575W        W64471  14.817  16.919   0.925
11576W        W64472  26.018  32.097   0.897
11577W        W64473  11.621  14.825   0.446
11578W        W64474   7.366  21.601   7.677
11579W        W64475  30.235  24.316   9.900
11580W        W64476  35.640   4.776   2.613
11581W        W64477   5.891  22.670  10.170
11582W        W64478  34.675  24.542   8.460
11583W        W64479  15.285  15.756   9.202
11584W        W64480   7.773  21.049   2.883
11585W        W64481  19.630   4.113   8.484
11586W        W64482  31.324  20.561   1.029
11587W        W64483  25.307   9.115   8.454
11588W        W64484  33.576  21.038   9.868
11589W        W64485  32.900   3.563   1.898
11590W        W64486  29.811   4.831   0.620
11591W        W64487   2.959  13.168   8.837
11592W        W64488  23.279   5.139   0.274
11593W        W64489  18.146  23.104   9.918
11594W        W64490   7.934  20.541   1.101
11595W        W64491   0.677  18.061   2.989
11596W        W64492   9.853  18.944   9.901
11597W        W64493  19.615  18.537   1.987
11598W        W64494  34.181   8.992   2.159
11599W        W64495   0.732  32.758   2.705
11600W        W64496  22.589   1.044   0.230
11601W        W64497   3.864   3.444   9.351
11602W        W64498  22.106  30.723   9.299
11603W        W64499  20.033   0.147   2.009
11604W        W64500   9.486  17.486   9.580
11605W        W64501  29.657  32.855   1.693
11606W        W64502  21.374  32.365   8.189
11607W        W64503  25.550   5.558   8.980
11608W        W64504  31.171  29.243   7.975
11609W        W64505  18.909  13.005   1.967
11610W        W64506  33.668  34.405   0.493
11611W        W64507   4.003  22.647   8.976
11612W        W64508  10.326   2.401   0.294
11613W        W64509   9.964  34.587   0.021
11614W        W64510  32.254  10.472   8.884
11615W        W64511  33.666   2.033   2.820
11616W        W64512   3.807  22.294   0.221
11617W        W64513   5.864  30.101   2.739
11618W        W64514   3.393  10.058   8.094
11619W        W64515  35.382   6.205   1.551
11620W        W64516   6.449   7.868   8.322
11621W        W64517  16.196   3.471   1.614
11622W        W64518   7.530   1.763   1.903
11623W        W64519  33.222   1.617   8.720
11624W        W64520  19.811  27.597   0.775
11625W        W64521  32.448   6.300   9.328
11626W        W64522  28.131  17.188   9.057
11627W        W64523  26.844  28.626   1.321
11628W        W64524  31.582  18.050   3.366
11629W        W64525   8.993  25.883   7.232
11630W        W64526  15.777  28.686   9.222
11631W        W64527  34.767  34.536   8.305
11632W        W64528  35.842   3.374   0.745
11633W        W64529  13.286  29.424   2.934
11634W        W64530  34.172  15.220  10.137
11635W        W64531  21.537  21.188   2.751
11636W        W64532   2.201  12.500   2.896
11637W        W64533  33.170  32.684   9.965
11638W        W64534  11.555   6.343   2.886
11639W        W64535  17.065  17.622   1.671
11640W        W64536  18.735  30.564   9.347
11641W        W64537  32.127  35.054   7.722
11642W        W64538  34.719  18.527   8.369
11643W        W64539   8.841  15.070   3.193
11644W        W64540  34.776   8.481   8.628
11645W        W64541  18.662  21.159   1.081
11646W        W64542  24.129  22.567   1.333
11647W        W64543  25.988  27.162   9.604
11648W        W64544   2.755  26.135   9.387
11649W        W64545   4.913  13.644   3.081
11650W        W64546   8.866  23.813   2.383
11651W        W64547  22.408  31.035   8.847
11652W        W64548  22.474  27.385   8.173
11653W        W64549   1.568  17.569   8.773
11654W        W64550   3.613   2.878   9.876
11655W        W64551  30.916   1.840   7.894
11656W        W64552  13.633  30.214   0.492
11657W        W64553   6.963  15.465   0.751
11658W        W64554  21.133  34.704   1.048
11659W        W64555  21.693  15.236   1.423
11660W        W64556  10.843  31.801   9.841
11661W        W64557  13.437  24.660   0.614
11662W        W64558   6.271   7.211   1.876
11663W        W64559  29.653   4.145   3.026
11664W        W64560   4.873  24.942   1.486
11665W        W64561   4.740   5.894   1.106
11666W        W64562  19.177  32.892   1.120
11667W        W64563  26.689  14.801   1.183
11668W        W64564  27.856  18.238   2.149
11669W        W64565  35.421  26.778   0.848
11670W        W64566  17.652  21.982   8.061
11671W        W64567  18.567  23.435   1.815
11672W        W64568  20.546  18.242   9.994
11673W        W64569   8.304  12.017   0.982
11674W        W64570  16.599  18.016   2.337
11675W        W64571  14.504  20.553   7.530
11676W        W64572  10.092  34.219   9.877
11677W        W64573  18.018   2.690   7.944
11678W        W64574  31.866  28.721  10.234
11679W        W64575  10.166  18.110   9.102
11680W        W64576  27.740  31.663   1.944
11681W        W64577  27.171  16.569   2.620
11682W        W64578  20.739  17.175   9.915
11683W        W64579  30.659  26.631   2.137
11684W        W64580   0.141   1.294   9.844
11685W        W64581  15.735   5.661   9.294
11686W        W64582  26.580  33.891   1.314
11687W        W64583  30.069  33.385   9.908
11688W        W64584  16.248  14.490   8.194
11689W        W64585  18.202  26.723   4.252
11690W        W64586  32.972   9.371   9.839
11691W        W64587  31.834  19.351   7.918
11692W        W64588   5.568  27.248   8.746
11693W        W64589  13.195  20.141   2.043
11694W        W64590   5.336  28.779   1.288
11695W        W64591  14.035  14.939   0.202
11696W        W64592  23.352   6.157  10.178
11697W        W64593  15.636  17.254   2.766
11698W        W64594  30.327   4.005   8.305
11699W        W64595  25.673   7.602   1.332
11700W        W64596  10.888   6.909   0.238
11701W        W64597   3.069  12.326   0.520
11702W        W64598  25.535  17.480   0.513
11703W        W64599  25.682  29.218   1.737
11704W        W64600  22.191   0.062   9.140
11705W        W64601  14.245  10.054   0.166
11706W        W64602  19.930  10.142   1.246
11707W        W64603  32.092  24.110  10.311
11708W        W64604  28.473  19.782   2.998
11709W        W64605  24.630  11.332   1.447
11710W        W64606  13.176   3.773   2.321
11711W        W64607   5.601  12.964   0.936
11712W        W64608   9.552   4.262   0.801
11713W        W64609  33.152  22.323   9.742
11714W        W64610   0.421   2.606   1.031
11715W        W64611   2.879  24.655   9.298
11716W        W64612  31.600  13.993  10.272
11717W        W64613   5.851  12.941   0.471
11718W        W64614  26.318  16.430   0.594
11719W        W64615  20.247   4.205   7.774
11720W        W64616  10.508   6.156   0.667
11721W        W64617  12.810  20.001   1.669
11722W        W64618  14.697  16.449   1.072
11723W        W64619  20.045  11.993   3.896
11724W        W64620  17.168  31.934  10.197
11725W        W64621  16.576  11.018   3.559
11726W        W64622  33.464  33.057   9.791
11727W        W64623  30.109  27.101   3.492
11728W        W64624  27.384  32.856   1.102
11729W        W64625  20.500   6.987   8.888
11730W        W64626   2.798  32.004   2.553
11731W        W64627   9.755  34.131   8.367
11732W        W64628  35.033   1.619   8.260
11733W        W64629  19.852  19.113   9.137
11734W        W64630  14.074   0.788   9.587
11735W        W64631  17.591   1.239   9.155
11736W        W64632  12.106  16.239   1.506
11737W        W64633  32.003   4.260   8.796
11738W        W64634   4.579  23.681   1.930
11739W        W64635  13.288  16.580   7.844
11740W        W64636  24.707  12.460   8.390
11741W        W64637  28.385  24.604   8.188
11742W        W64638  26.940  23.241  10.179
11743W        W64639   1.854  17.095   9.101
11744W        W64640  24.732   0.803   0.134
11745W        W64641  17.911   7.004   2.762
11746W        W64642  15.385  31.533   2.725
11747W        W64643   8.581  14.818   9.003
11748W        W64644  13.630  22.173   7.872
11749W        W64645   5.995  33.832   2.149
11750W        W64646  31.768  31.355   1.570
11751W        W64647   0.831  34.494   0.680
11752W        W64648  31.611   5.256   2.352
11753W        W64649  11.933   0.614   0.294
11754W        W64650   4.759  10.111   9.559
11755W        W64651  20.619  18.126   8.074
11756W        W64652   9.328  16.696   0.085
11757W        W64653  18.522  14.100   9.291
11758W        W64654   7.382   1.546   0.534
11759W        W64655   0.818  17.581   2.784
11760W        W64656  21.185  14.434   8.465
11761W        W64657   9.852  13.327   9.167
11762W        W64658  19.795  25.295   8.917
11763W        W64659   2.237   6.935   9.172
11764W        W64660   3.710  23.493  10.096
11765W        W64661   1.735   6.923   9.245
11766W        W64662   6.615  26.885   1.989
11767W        W64663  26.385  35.514   2.552
11768W        W64664   0.495   4.703   2.622
11769W        W64665  29.247  35.976   0.326
11770W        W64666  25.026   6.413   0.520
11771W        W64667  26.912   1.690   9.066
11772W        W64668  12.035  18.922   2.380
11773W        W64669   3.563  18.963   8.568
11774W        W64670  33.716  16.552   3.227
11775W        W64671  17.994   4.679   2.956
11776W        W64672   7.972  19.814   8.329
11777W        W64673  18.637  20.244   1.314
11778W        W64674   2.401  31.863   2.071
11779W        W64675  33.860   5.370   2.309
11780W        W64676  11.502   0.097   8.751
11781W        W64677  23.422   2.944   7.400
11782W        W64678  24.717  30.371   8.675
11783W        W64679   6.597  25.591   9.774
11784W        W64680  23.881  29.801   0.380
11785W        W64681  18.726   1.495   9.454
11786W        W64682  27.211  14.349   1.892
11787W        W64683  31.021  31.979   9.853
11788W        W64684  23.367  15.526   7.685
11789W        W64685  27.398   4.696   1.731
11790W        W64686  35.334   3.058   2.822
11791W        W64687  27.766  10.554   0.635
11792W        W64688   9.709   6.021   8.928
11793W        W64689  18.123  33.103   1.921
11794W        W64690  20.886   2.171   2.364
11795W        W64691  34.059  17.536   0.397
11796W        W64692  35.156  10.001  10.227
11797W        W64693   4.103  33.095   2.509
11798W        W64694  25.753  29.298   0.768
11799W        W64695   9.093  17.645  10.034
11800W        W64696  16.319  20.404   2.233
11801W        W64697   1.770   2.719   9.814
11802W        W64698  15.158  25.627   8.305
11803W        W64699   1.525  32.535   1.433
11804W        W64700  35.026  17.335   9.394
11805W        W64701  16.825  20.373   8.174
11806W        W64702  26.714  11.683  10.319
11807W        W64703  11.232  15.424   2.387
11808W        W64704   8.334  10.581   0.825
11809W        W64705  22.761   0.265   2.273
11810W        W64706  23.098  32.636   2.676
11811W        W64707   6.738  26.809   9.307
11812W        W64708  26.608  28.430   1.717
11813W        W64709  28.257   8.083   8.924
11814W        W64710  34.601  14.530   3.408
11815W        W64711  35.400  14.178  10.333
11816W        W64712   3.645  24.958   8.683
11817W        W64713   0.134  30.987   0.785
11818W        W64714  11.289  31.201   0.594
11819W        W64715  29.826   3.249   2.400
11820W        W64716   2.283   8.470   3.251
11821W        W64717  28.716  11.667  10.160
11822W        W64718   0.548  14.350   1.222
11823W        W64719  26.572  32.739   9.160
11824W        W64720   7.387  23.770   7.675
11825W        W64721   3.751  14.055   1.271
11826W        W64722  19.391   6.412   1.469
11827W        W64723  16.304  33.673   2.121
11828W        W64724  32.014   4.067   0.606
11829W        W64725  14.723  28.559   7.549
11830W        W64726  11.714  25.666   2.237
11831W        W64727  18.286   2.680   1.109
11832W        W64728   6.072  19.420   7.293
11833W        W64729  29.632   8.437   9.507
11834W        W64730  26.407  20.214   0.498
11835W        W64731  31.362  10.725   2.845
11836W        W64732  13.078  21.316   8.088
11837W        W64733  33.237  35.452   2.401
11838W        W64734  16.768  10.613  10.013
11839W        W64735   7.972  12.916   8.922
11840W        W64736  33.151  32.901   2.717
11841W        W64737   3.676  20.567   2.102
11842W        W64738  28.247   3.750   0.376
11843W        W64739  21.937  17.070   8.272
11844W        W64740  29.009   2.639   9.673
11845W        W64741   7.783   9.878   6.635
11846W        W64742   2.920  15.531   9.192
11847W        W64743   6.406  15.123   0.053
11848W        W64744   3.526  14.609   9.302
11849W        W64745   5.353  14.752   3.383
11850W        W64746   5.835  32.145   9.163
11851W        W64747   0.107  30.036   3.867
11852W        W64748  33.894   9.198   9.888
11853W        W64749   1.497  31.525   2.778
11854W        W64750  33.996   6.276   9.054
11855W        W64751  23.177  27.435   0.684
11856W        W64752  31.477  19.540   1.540
11857W        W64753   5.960  33.233   9.914
11858W        W64754   4.849  13.806   8.683
11859W        W64755   7.188   1.753   0.072
11860W        W64756  32.518   0.041   3.330
11861W        W64757  32.845  25.174   1.829
11862W        W64758  10.469  16.576  10.235
11863W        W64759  15.718   7.639   8.305
11864W        W64760   1.899   2.039   0.096
11865W        W64761  21.288  26.063   1.622
11866W        W64762  19.419   1.070   2.190
11867W        W64763  12.360   5.573   2.462
11868W        W64764   7.106   0.316   8.341
11869W        W64765  24.894  25.189   1.313
11870W        W64766  25.591  12.284   8.340
11871W        W64767   2.995  16.548   8.272
11872W        W64768  19.047  25.367   2.636
11873W        W64769  15.748  13.606   3.292
11874W        W64770  23.500  22.509   2.065
11875W        W64771  33.459  11.504   9.049
11876W        W64772   4.756  16.435   0.381
11877W        W64773  34.973  14.200  10.045
11878W        W64774   6.368  30.156   2.707
11879W        W64775  10.796  27.339   0.147
11880W        W64776  12.316  25.386   0.520
11881W        W64777  20.100  17.681   7.665
11882W        W64778  33.784  21.963   1.067
11883W        W64779   4.066  19.120   8.367
11884W        W64780   0.282   0.325   7.504
11885W        W64781   7.906   7.166   0.937
11886W        W64782  16.438  12.281   8.776
11887W        W64783  25.165  20.671   2.409
11888W        W64784   2.547   1.760   2.554
11889W        W64785  31.423   3.064   9.656
11890W        W64786  25.322  19.663   8.247
11891W        W64787  20.209   9.063   0.222
11892W        W64788  10.863  35.100   8.531
11893W        W64789  32.047  19.407   0.261
11894W        W64790  17.615  30.484   8.797
11895W        W64791  29.969   7.923   9.427
11896W        W64792  32.571  10.397   7.236
11897W        W64793  30.947  23.738   8.521
11898W        W64794  30.962   9.600   9.424
11899W        W64795  14.629  30.994   8.876
11900W        W64796  16.531  12.979   3.772
11901W        W64797  16.559  24.929   7.797
11902W        W64798   3.443  16.416   1.369
11903W        W64799   3.974  12.958   9.318
11904W        W64800  14.130  26.741   9.393
11905W        W64801   2.221   5.707   7.506
11906W        W64802   4.203  17.814   1.020
11907W        W64803  33.571  11.594   3.057
11908W        W64804  23.650  31.271   1.021
11909W        W64805  34.421  23.529   9.557
11910W        W64806   5.983  17.219   0.843
11911W        W64807   3.215  30.050   8.122
11912W        W64808  18.588  16.113   1.323
11913W        W64809  33.214  13.145   0.088
11914W        W64810  15.083  18.757   8.700
11915W        W64811  13.338  32.409   3.546
11916W        W64812  26.933  18.773   9.345
11917W        W64813  23.000  26.972   9.754
11918W        W64814  12.229   4.668   6.785
11919W        W64815  32.107   1.793   0.269
11920W        W64816   3.151   2.766   0.325
11921W        W64817   1.383  23.006   0.480
11922W        W64818  23.727  12.625   8.029
11923W        W64819   7.088  15.002   3.070
11924W        W64820  10.181  19.884   8.715
11925W        W64821  29.443  25.966   0.006
11926W        W64822  24.021  14.824   9.163
11927W        W64823  20.627  15.432   0.425
11928W        W64824  15.643  30.813  10.021
11929W        W64825   7.827  29.178   2.203
11930W        W64826  34.155  26.735  10.235
11931W        W64827   1.458  25.824   3.321
11932W        W64828   2.191   6.072   1.555
11933W        W64829  31.606   0.425   1.181
11934W        W64830   0.754   3.641   1.132
11935W        W64831   4.979  11.290  10.002
11936W        W64832   8.244  22.049   0.170
11937W        W64833  21.238  18.903   8.141
11938W        W64834  16.869  30.356   8.302
11939W        W64835   8.699  25.395   8.613
11940W        W64836  31.160  22.666   7.906
11941W        W64837   4.060  32.994   9.810
11942W        W64838   4.890  20.028   0.996
11943W        W64839   3.128  24.305   9.055
11944W        W64840   0.954  22.554   8.535
11945W        W64841  35.647   0.877   1.961
11946W        W64842  10.886  31.181   0.930
11947W        W64843  35.059  30.551   3.277
11948W        W64844  19.573  14.932   8.871
11949W        W64845   2.952  21.316   2.136
11950W        W64846  18.409  13.996   0.134
11951W        W64847  27.729  26.553  10.079
11952W        W64848  25.079   4.969   1.894
11953W        W64849   3.568  15.214   3.230
11954W        W64850   1.355  13.956   9.062
11955W        W64851   9.193  30.848   8.565
11956W        W64852   8.718  34.074   7.507
11957W        W64853  11.344  26.722   1.554
11958W        W64854   3.407  27.347   0.784
11959W        W64855  28.803  15.501   2.849
11960W        W64856   1.075  14.676   1.754
11961W        W64857  28.348  19.692   2.465
11962W        W64858   8.323  14.015   2.530
11963W        W64859  21.159   3.865   2.969
11964W        W64860   3.902  22.088   2.057
11965W        W64861  14.296  20.159   7.803
11966W        W64862  31.229  27.386   0.583
11967W        W64863  34.800  35.145   0.316
11968W        W64864  25.601  27.146   2.832
11969W        W64865  23.669  35.878  10.014
11970W        W64866  15.408  35.411   9.988
11971W        W64867  23.537  25.518   8.674
11972W        W64868  33.317  14.818   1.870
11973W        W64869  16.290   8.707   0.032
11974W        W64870  21.654   9.857   8.247
11975W        W64871  12.842  35.858   2.252
11976W        W64872   8.628  33.718  10.169
11977W        W64873  28.474   2.942  10.206
11978W        W64874  24.390  12.770   0.442
11979W        W64875  27.457  26.065   8.041
11980W        W64876  17.910   2.390   1.111
11981W        W64877   9.477  35.771   2.836
11982W        W64878   5.512  35.778   9.248
11983W        W64879  32.261   5.152   8.304
11984W        W64880  13.486  21.967   2.232
11985W        W64881  21.699  22.183   0.964
11986W        W64882  29.161  10.917   0.409
11987W        W64883   7.245  26.394   1.518
11988W        W64884  31.055  30.466   1.507
11989W        W64885  34.057  33.500   0.283
11990W        W64886   0.112   2.603   1.640
11991W        W64887  30.774   7.964   2.570
11992W        W64888  34.162  15.680   0.036
11993W        W64889  30.065  20.944   8.808
11994W        W64890   9.469   4.320   2.224
11995W        W64891   7.520   3.678  10.295
11996W        W64892  15.938  27.530   9.941
11997W        W64893  27.053  10.279   8.993
11998W        W64894  24.977   4.225   9.116
11999W        W64895  27.444  19.464   2.042
12000W        W64896  28.808  30.654   8.157
12001W        W64897  31.502   5.967   8.957
12002W        W64898   0.490   7.049   9.689
12003W        W64899   5.193  25.018   2.495
12004W        W64900  29.621  23.903   9.952
12005W        W64901  35.498   1.028   7.481
12006W        W64902  30.185  15.710   0.913
12007W        W64903  26.098  10.579   1.858
12008W        W64904   4.803  33.322   8.109
12009W        W64905  14.082  15.463   8.004
12010W        W64906  14.495  33.130   2.182
12011W        W64907   7.116  11.295   7.033
12012W        W64908  32.695  20.822   3.383
12013W        W64909  17.412   7.594   1.421
12014W        W64910   1.242  35.510   7.716
12015W        W64911  13.859  25.845   3.041
12016W        W64912  17.479   3.724   2.490
12017W        W64913  15.966  21.098   9.304
12018W        W64914  35.726  24.063   1.196
12019W        W64915  20.154  29.941   8.283
12020W        W64916   1.289  29.106   3.384
12021W        W64917  18.921   6.327   1.470
12022W        W64918  34.719  24.020   2.242
12023W        W64919  12.824  19.879   0.582
12024W        W64920  27.811  10.000   9.683
12025W        W64921  21.701  32.048   9.225
12026W        W64922  33.875  35.916   2.207
12027W        W64923   2.260   1.049   1.766
12028W        W64924  21.773  18.308   8.769
12029W        W64925   4.094   7.422   6.931
12030W        W64926  14.528  19.105   9.744
12031W        W64927   8.226  28.832   2.094
12032W        W64928  22.423  25.155   7.452
12033W        W64929  11.131   4.193   2.401
12034W        W64930   9.140   6.237   9.606
12035W        W64931  29.724  31.358   8.655
12036W        W64932  32.341   8.456  10.328
12037W        W64933   1.944   0.769   7.843
12038W        W64934   6.871   4.487   0.033
12039W        W64935  15.666   2.424   8.194
12040W        W64936  26.725   1.898   7.618
12041W        W64937  24.547   1.299   0.189
12042W        W64938  28.053   2.158   2.337
12043W        W64939  18.977  29.872   0.590
12044W        W64940  14.866  23.073   1.321
12045W        W64941  15.219  17.715   9.490
12046W        W64942  30.146  18.280   8.191
12047W        W64943  23.129   3.263   1.562
12048W        W64944   0.253  16.516   2.301
12049W        W64945   8.012  32.167   1.519
12050W        W64946  22.394  22.975   8.632
12051W        W64947  34.301   7.541   1.945
12052W        W64948  10.910  10.303   1.691
12053W        W64949  31.331  18.536   8.494
12054W        W64950  28.998  27.463   1.988
12055W        W64951  10.949  34.706   8.166
12056W        W64952   0.572  23.786   3.043
12057W        W64953  31.834  15.285   8.129
12058W        W64954  35.465  34.264   9.294
12059W        W64955  33.372  11.051   0.186
12060W        W64956  14.502  18.196   9.441
12061W        W64957   4.278   1.353   8.609
12062W        W64958  26.293   5.983   8.815
12063W        W64959   5.483   3.447   0.530
12064W        W64960   7.920   6.590   2.318
12065W        W64961   2.562  10.497   2.962
12066W        W64962  32.938  30.990   2.135
12067W        W64963  11.668  11.936   9.315
12068W        W64964   3.246   0.265  10.284
12069W        W64965  29.379  23.485   7.903
12070W        W64966  21.909   5.793   2.015
12071W        W64967   7.296   0.305   2.488
12072W        W64968  24.657   4.273   1.484
12073W        W64969  14.481  11.358  10.248
12074W        W64970   7.544   7.793   8.347
12075W        W64971   9.005  14.530   9.021
12076W        W64972   3.642  29.232   9.895
12077W        W64973  28.962  22.103   1.422
12078W        W64974  34.244  14.803   0.552
12079W        W64975  25.095  33.238  10.041
12080W        W64976  34.923  25.630   1.512
12081W        W64977   9.253  29.407   1.537
12082W        W64978  10.482  31.699   0.350
12083W        W64979  34.524  24.718   1.900
12084W        W64980  28.719   6.710   2.213
12085W        W64981  16.857   5.562  10.105
12086W        W64982  10.415  11.925   6.895
12087W        W64983  19.546  18.977   0.123
12088W        W64984  35.692  13.120   8.190
12089W        W64985  14.716  20.140   1.758
12090W        W64986   7.740   4.069   7.749
12091W        W64987  35.058  30.518   8.528
12092W        W64988  35.323   0.635   1.690
12093W        W64989   9.583   8.714   8.720
12094W        W64990  15.806   5.354  10.106
12095W        W64991  13.841  24.267   9.909
12096W        W64992  24.881  12.155  10.279
12097W        W64993   7.769  19.229   0.447
12098W        W64994  28.726  28.299   3.774
12099W        W64995   9.682   9.190   8.338
12100W        W64996  23.352  12.291   2.717
12101W        W64997  30.615  16.460   1.008
12102W        W64998   5.332  25.353   7.796
12103W        W64999   7.711  31.875   2.472
12104W        W65000  20.054   9.105   2.342
12105W        W65001  32.860   6.076   0.240
12106W        W65002   5.156   3.587   1.804
12107W        W65003  21.183  29.890   2.271
12108W        W65004   6.175  31.195   1.469
12109W        W65005  27.185   4.307   7.613
12110W        W65006  35.747  18.849   9.515
12111W        W65007   7.690   7.742   2.939
12112W        W65008  15.580  33.931   2.463
12113W        W65009   2.879  14.787   7.829
12114W        W65010  34.435  12.096   2.638
12115W        W65011  35.605   2.069   2.853
12116W        W65012   6.846  14.574   0.500
12117W        W65013  19.135  30.967   3.215
12118W        W65014   7.157  16.781   3.490
12119W        W65015  15.129  21.707   7.514
12120W        W65016  32.696  10.659   9.225
12121W        W65017  30.795  22.864   2.735
12122W        W65018   0.734  13.634   0.693
12123W        W65019  27.940   6.662   8.910
12124W        W65020  16.858   6.765   2.907
12125W        W65021  30.364  33.097   8.746
12126W        W65022   0.828   1.978   2.425
12127W        W65023  16.790  33.737   8.968
12128W        W65024   7.696   9.496   8.036
12129W        W65025   3.136  16.009   0.089
12130W        W65026  35.937  11.405   0.776
12131W        W65027   0.861  14.195   0.681
12132W        W65028  18.397  31.429  10.265
12133W        W65029   0.980  21.155   0.865
12134W        W65030  19.504  10.400   4.032
12135W        W65031  34.498   1.321   1.497
12136W        W65032  19.080  14.875   2.823
12137W        W65033  15.868  14.616   0.232
12138W        W65034   2.988  31.637   8.863
12139W        W65035  26.722  20.063   9.994
12140W        W65036   9.808   2.293   7.060
12141W        W65037   0.155  33.927   3.739
12142W        W65038   2.689  21.164   3.085
12143W        W65039  22.293  10.907   1.332
12144W        W65040  17.093  31.329   2.858
12145W        W65041   2.090  12.969   2.728
12146W        W65042  23.034   2.192   1.633
12147W        W65043  18.097  13.848   9.195
12148W        W65044  12.291   3.065   2.460
12149W        W65045   5.996  22.131   7.665
12150W        W65046  14.788  21.180   3.278
12151W        W65047   0.294  18.194   7.873
12152W        W65048   0.924  20.961   9.364
12153W        W65049  20.378  22.873   3.247
12154W        W65050   4.133  33.256   1.859
12155W        W65051  28.189  34.757   8.645
12156W        W65052  19.215  15.353   2.946
12157W        W65053  21.959   3.193   9.411
12158W        W65054  13.301  22.355  10.150
12159W        W65055   5.939  17.749   8.483
12160W        W65056   6.494  19.981   3.004
12161W        W65057   3.638  14.919  10.076
12162W        W65058  26.400  35.013   0.772
12163W        W65059  31.208  35.827   8.544
12164W        W65060   0.654  18.646   1.818
12165W        W65061  26.096  26.019   7.600
12166W        W65062  20.825   7.860   8.686
12167W        W65063  13.720   7.934   1.934
12168W        W65064  11.269  35.202   8.167
12169W        W65065  33.927  17.902   9.050
12170W        W65066   0.306  33.969   0.121
12171W        W65067  13.912  32.961   9.484
12172W        W65068  11.227  22.966   1.682
12173W        W65069  29.894  30.280  10.258
12174W        W65070  35.014  14.175   3.444
12175W        W65071   5.644   6.482   0.135
12176W        W65072  13.589  25.530  10.140
12177W        W65073  10.997   7.305   2.022
12178W        W65074  31.813  13.943   2.522
12179W        W65075  33.207  32.154   8.819
12180W        W65076  18.223  30.007   0.419
12181W        W65077  18.664  14.732   2.959
12182W        W65078  11.889  19.449   9.291
12183W        W65079  28.377  10.164  10.264
12184W        W65080   3.556  30.145   0.189
12185W        W65081  35.128   8.520   2.592
12186W        W65082  17.643  12.322   9.270
12187W        W65083  19.832  23.472   2.978
12188W        W65084  27.131   6.616   1.160
12189W        W65085  33.223  20.765   1.548
12190W        W65086  26.179  27.460   7.815
12191W        W65087   2.716  17.327   8.923
12192W        W65088  19.920  20.894   0.365
12193W        W65089  18.370  25.782  10.260
12194W        W65090  26.296  11.028   9.140
12195W        W65091  26.635   9.618   9.686
12196W        W65092  33.540  18.562   9.543
12197W        W65093  27.171  24.080   0.097
12198W        W65094  29.286  31.944   7.833
12199W        W65095   4.424  13.031   9.128
12200W        W65096   6.196   9.358   3.186
12201W        W65097  17.949  18.814   3.938
12202W        W65098  15.057   0.798   8.007
12203W        W65099  31.268  18.084   0.574
12204W        W65100   2.418  29.440   1.687
12205W        W65101  35.024  32.439   9.312
12206W        W65102  23.142  21.908   9.709
12207W        W65103  31.100  27.361   2.182
12208W        W65104  28.853   8.571   1.378
12209W        W65105  28.725  21.455   8.676
12210W        W65106  24.472  21.765   1.030
12211W        W65107  32.295  11.360   8.105
12212W        W65108  13.687  31.707   3.172
12213W        W65109  10.504   6.658   8.510
12214W        W65110   2.499  31.016   1.917
12215W        W65111   5.116  21.391   1.683
12216W        W65112   7.405  32.910   8.433
12217W        W65113  23.494   8.221   2.642
12218W        W65114  15.040  28.308   2.614
12219W        W65115   3.834  13.542   7.905
12220W        W65116  12.657  16.446   9.831
12221W        W65117   0.516  22.571   3.048
12222W        W65118  26.246  25.760   8.036
12223W        W65119  17.077   2.470   1.521
12224W        W65120  25.294   5.501   3.493
12225W        W65121  34.781  20.022   8.970
12226W        W65122  25.035  16.671  10.312
12227W        W65123  15.032   8.056   3.044
12228W        W65124   2.931  11.187   8.275
12229W        W65125  27.038  29.607   9.298
12230W        W65126  20.662   0.681   1.284
12231W        W65127  24.710  30.079   0.899
12232W        W65128   7.447  14.954   9.686
12233W        W65129   7.290  35.923   1.850
12234W        W65130  10.311   6.170   8.257
12235W        W65131   4.597   4.799   0.802
12236W        W65132  32.773  23.047   0.613
12237W        W65133  22.735  24.589   1.398
12238W        W65134   6.396   0.964  10.230
12239W        W65135  22.259  25.648   1.015
12240W        W65136   1.961  20.987   2.383
12241W        W65137  12.296   4.778   0.692
12242W        W65138  23.802  22.316   1.032
12243W        W65139  14.959   4.301   2.684
12244W        W65140  23.705  35.017   8.489
12245W        W65141  12.441  20.483   7.490
12246W        W65142  20.500  22.354  10.136
12247W        W65143  20.686  32.623   9.990
12248W        W65144  16.452  31.281   8.432
12249W        W65145  12.363  12.114   2.356
12250W        W65146  25.386  32.150   2.641
12251W        W65147  28.678  33.355   0.152
12252W        W65148  32.821  17.178   8.574
12253W        W65149  27.159   8.525   2.353
12254W        W65150   1.661   4.031   2.790
12255W        W65151  25.907  10.617   7.902
12256W        W65152  28.818   8.282   1.917
12257W        W65153  28.911  21.338   8.181
12258W        W65154  35.193  13.218   1.770
12259W        W65155  18.439   9.746   2.420
12260W        W65156  14.396   7.654   7.812
12261W        W65157  35.617   9.797   0.802
12262W        W65158  11.439  24.288   7.337
12263W        W65159   8.779  31.795   8.702
12264W        W65160  33.073  27.188   1.445
12265W        W65161  28.688  20.113   0.477
12266W        W65162  29.539  34.965   9.225
12267W        W65163   3.207  21.093   9.577
12268W        W65164  20.067  22.212   0.547
12269W        W65165  33.765  13.166   4.019
12270W        W65166   3.126  19.933   7.663
12271W        W65167  32.415  32.402   3.038
12272W        W65168  18.901   3.515   8.836
12273W        W65169  33.279   8.409   1.184
12274W        W65170   7.340  24.597   3.469
12275W        W65171  33.174  24.413   8.931
12276W        W65172   0.647  30.623   9.412
12277W        W65173  23.683  29.017   0.066
12278W        W65174  16.217  25.294   1.836
12279W        W65175  18.199  34.549   2.217
12280W        W65176   5.254   3.054   8.027
12281W        W65177  35.044   2.206   9.598
12282W        W65178  13.267  28.877   2.098
12283W        W65179  30.799  22.544  10.057
12284W        W65180  28.195  22.508   1.956
12285W        W65181  24.924   9.086   0.927
12286W        W65182  17.037  33.674   2.654
12287W        W65183   2.417  18.048   0.939
12288W        W65184  32.463  29.246  10.123
12289W        W65185   1.586  29.006   2.942
12290W        W65186  10.757  21.098   8.336
12291W        W65187  32.287   1.948   8.861
12292W        W65188   8.969   8.814   3.107
12293W        W65189  12.553  11.360   7.688
12294W        W65190  34.014   6.215   9.886
12295W        W65191  34.158  30.084   2.195
12296W        W65192  14.646   3.469   1.722
12297W        W65193  12.941   0.493   0.208
12298W        W65194  34.145   8.958   7.619
12299W        W65195  31.547   0.739   0.730
12300W        W65196   8.350   7.107   9.501
12301W        W65197  10.735  33.287   2.923
12302W        W65198   9.877   7.360   1.727
12303W        W65199  31.282   9.432   1.097
12304W        W65200  23.716  35.558   1.497
12305W        W65201  15.646  21.731   1.436
12306W        W65202  35.006  32.750   1.744
12307W        W65203  24.249   3.878   0.151
12308W        W65204  13.558  18.768   9.887
12309W        W65205  22.337   0.143   1.056
12310W        W65206  35.481  21.562   1.126
12311W        W65207   9.584   1.613   8.348
12312W        W65208  27.736  33.394   7.296
12313W        W65209  31.496  24.673   1.960
12314W        W65210   2.497  21.048   9.657
12315W        W65211   3.860   0.778   0.569
12316W        W65212  33.114  12.432   7.840
12317W        W65213  26.037   2.057   9.060
12318W        W65214  25.795   8.299   2.415
12319W        W65215  14.454   2.992   3.588
12320W        W65216  14.461  20.866   2.222
12321W        W65217  14.091   5.680   3.056
12322W        W65218   4.026  30.747   2.469
12323W        W65219  11.221  27.418   9.135
12324W        W65220  32.068  31.505   9.516
12325W        W65221  35.253   1.054  10.309
12326W        W65222   1.344  32.598   0.865
12327W        W65223  22.203  34.224   3.330
12328W        W65224   3.850  10.575   0.322
12329W        W65225  20.398  29.475   9.867
12330W        W65226  35.345  23.031   0.730
12331W        W65227   7.438  18.627   9.550
12332W        W65228  10.527  10.461   7.837
12333W        W65229  10.591  30.325   2.305
12334W        W65230  29.127   8.055   7.238
12335W        W65231  24.324   6.285   2.007
12336W        W65232  31.814  35.870   8.007
12337W        W65233  13.346  22.239   1.548
12338W        W65234  13.101  25.246   2.893
12339W        W65235  13.882   7.686   7.732
12340W        W65236  29.020  15.544   1.541
12341W        W65237  11.516   4.408   1.591
12342W        W65238   9.116  14.435   9.548
12343W        W65239  23.502  23.475   2.952
12344W        W65240  30.777  35.290   1.359
12345W        W65241  18.831   2.686   3.939
12346W        W65242  24.921  22.332   9.224
12347W        W65243  22.513   5.389   0.308
12348W        W65244  13.078   0.874   8.339
12349W        W65245   3.098  35.468   0.355
12350W        W65246   8.793   1.298   2.234
12351W        W65247  22.839   9.656   1.155
12352W        W65248   5.060   9.242   3.399
12353W        W65249  32.777   2.933   1.198
12354W        W65250   5.976  26.359   1.997
12355W        W65251   9.140   8.015   3.088
12356W        W65252  30.072   1.035   9.122
12357W        W65253   2.174  34.915   9.728
12358W        W65254  18.550   5.909  10.204
12359W        W65255  28.457   4.392   1.375
12360W        W65256  16.420  17.751   9.856
12361W        W65257  25.848  34.239   8.673
12362W        W65258  31.432  13.328   2.831
12363W        W65259  21.812  34.454  10.018
12364W        W65260  18.605  16.577   9.528
12365W        W65261  30.962   3.248   1.784
12366W        W65262  20.029  20.298   9.519
12367W        W65263  25.474  16.450   8.729
12368W        W65264  23.386  23.951   1.816
12369W        W65265   9.763  26.988   0.737
12370W        W65266  35.858   7.468   7.632
12371W        W65267  25.682  32.028   8.205
12372W        W65268   8.806  20.361   7.830
12373W        W65269  16.028  21.420   8.527
12374W        W65270  22.894   9.322   1.553
12375W        W65271  24.310  10.809   8.955
12376W        W65272  25.830  10.184   0.687
12377W        W65273  23.173  14.306   9.199
12378W        W65274   2.746  30.687   2.196
12379W        W65275  32.109  29.344   9.348
12380W        W65276  31.050  29.808  10.301
12381W        W65277  11.911  14.487   7.234
12382W        W65278   4.078  22.904   0.996
12383W        W65279  21.390  26.268  10.038
12384W        W65280  24.649  12.586   3.124
12385W        W65281  22.396  19.956   2.468
12386W        W65282  16.749  17.778   0.291
12387W        W65283  27.443  26.683   8.313
12388W        W65284  10.858   5.552   7.100
12389W        W65285  28.340  18.623   8.954
12390W        W65286  34.499  35.798   3.001
12391W        W65287   9.705  12.755   2.369
12392W        W65288  16.304  11.784   2.423
12393W        W65289  26.295  10.080   2.602
12394W        W65290  28.996  34.288   8.876
12395W        W65291  14.623  17.330   8.722
12396W        W65292  24.717  23.478   2.848
12397W        W65293  14.579   4.368   1.338
12398W        W65294  12.091   7.129   8.562
12399W        W65295  27.980   5.009   2.780
12400W        W65296  24.162  31.248   3.284
12401W        W65297   7.754  10.478   7.601
12402W        W65298  25.828  19.159  10.089
12403W        W65299  17.173  22.075   1.039
12404W        W65300  29.706  22.740   2.604
12405W        W65301  24.835   5.830   7.567
12406W        W65302   2.783   9.607   8.494
12407W        W65303   0.530  16.357   0.298
12408W        W65304  24.264  16.216   2.886
12409W        W65305   7.885   3.947   9.201
12410W        W65306  19.540   2.506   3.760
12411W        W65307  35.777   2.642   1.983
12412W        W65308  21.658  26.489   3.890
12413W        W65309  30.553  28.586   7.573
12414W        W65310  27.448  17.121   0.246
12415W        W65311  23.371  15.165   8.042
12416W        W65312  18.601  35.564   0.658
12417W        W65313  21.097   7.042   1.974
12418W        W65314  12.711  13.166   1.366
12419W        W65315   1.798  14.097   1.361
12420W        W65316  23.662  11.102   1.767
12421W        W65317  17.001   4.489   9.365
12422W        W65318  16.754  31.530   7.583
12423W        W65319  29.257  14.714  10.016
12424W        W65320   0.978  27.007   2.676
12425W        W65321   8.652  10.234   0.198
12426W        W65322  11.227   7.410   7.162
12427W        W65323  21.376  33.606   1.826
12428W        W65324  21.286   5.700   1.403
12429W        W65325  22.053  11.972   3.510
12430W        W65326  18.780  29.556   8.564
12431W        W65327  20.411   3.612   3.409
12432W        W65328  35.335  11.776   9.788
12433W        W65329   6.835  29.784   7.964
12434W        W65330  28.062   3.920   2.188
12435W        W65331   9.546   3.252   7.983
12436W        W65332   6.050  32.471   8.888
12437W        W65333   7.460  27.330   0.336
12438W        W65334  32.350  11.841   8.287
12439W        W65335  27.676  24.649   9.186
12440W        W65336  29.861  14.124   2.219
12441W        W65337  26.916  10.601   9.920
12442W        W65338   9.618  19.155   9.128
12443W        W65339  31.804  16.547   1.504
12444W        W65340  31.549  25.468   2.859
12445W        W65341  18.293  17.603   7.772
12446W        W65342  25.003  31.346   1.094
12447W        W65343  33.490  33.887   1.944
12448W        W65344  23.152  35.339   3.203
12449W        W65345  34.959  21.473   0.114
12450W        W65346  16.719  13.770   7.323
12451W        W65347  18.728  14.210   0.521
12452W        W65348  14.758  30.544   2.016
12453W        W65349   1.561   4.570   0.306
12454W        W65350  21.485  21.987   3.396
12455W        W65351  27.174  18.020   8.526
12456W        W65352   5.956   1.168  10.321
12457W        W65353  19.961  23.032   9.457
12458W        W65354  18.355   0.006   7.951
12459W        W65355   7.367   0.951   2.580
12460W        W65356  21.979  11.793   9.550
12461W        W65357  14.998  29.339   7.947
12462W        W65358  31.520   3.414   9.173
12463W        W65359   8.427  28.117   7.551
12464W        W65360  14.107  23.128   2.401
12465W        W65361  15.691  13.425   1.182
12466W        W65362  21.723   2.168   0.566
12467W        W65363   5.230  15.673   1.743
12468W        W65364  16.415  22.810   8.653
12469W        W65365  15.222   8.371   2.132
12470W        W65366   4.743   0.609   9.706
12471W        W65367  35.652  19.198   1.499
12472W        W65368  20.088  26.374   1.281
12473W        W65369  19.913   6.135   7.065
12474W        W65370  12.022  14.504  10.061
12475W        W65371  32.436  10.850   8.433
12476W        W65372  19.839   2.954   0.213
12477W        W65373  33.283  35.759   9.369
12478W        W65374  15.608   2.868   9.082
12479W        W65375  20.040  26.011   0.221
12480W        W65376   4.910  32.094   0.511
12481W        W65377  19.133  11.779   0.825
12482W        W65378  32.322  26.299   3.532
12483W        W65379   9.720  18.149   1.704
12484W        W65380  28.754  30.324   0.525
12485W        W65381  31.870  22.523   9.226
12486W        W65382   6.986  26.351   9.698
12487W        W65383   5.066  21.866   7.313
12488W        W65384  20.759   1.779   1.218
12489W        W65385   6.112  14.880   3.144
12490W        W65386  12.294  21.314   1.819
12491W        W65387  10.647  13.911   9.495
12492W        W65388  35.315   7.021   9.787
12493W        W65389  27.782  18.990   2.293
12494W        W65390   5.311  33.328   8.019
12495W        W65391  27.584  27.065   7.877
12496W        W65392   4.782  11.994   9.924
12497W        W65393   0.158  20.291   7.642
12498W        W65394   5.919   7.429   2.944
12499W        W65395   1.021  21.318   9.705
12500W        W65396   9.531  14.658   3.685
12501W        W65397   3.783  27.801   2.265
12502W        W65398  33.450  10.319   1.363
12503W        W65399  35.169  34.001   1.569
12504W        W65400  10.356  14.974   9.438
12505W        W65401   4.860  30.985   1.860
12506W        W65402  23.675  28.504   0.097
12507W        W65403   5.786  11.980   8.239
12508W        W65404  23.260  12.649   9.372
12509W        W65405   4.587  33.487  10.243
12510W        W65406  33.824  29.691   9.754
12511W        W65407   4.367  28.427   7.996
12512W        W65408  13.044  27.600   1.190
12513W        W65409  35.123   1.526   2.444
12514W        W65410   1.127  35.852   3.556
12515W        W65411  14.949   4.409   3.191
12516W        W65412  29.714  31.794   7.760
12517W        W65413  28.808  35.873   9.777
12518W        W65414  14.379  12.471   0.785
12519W        W65415   5.486  27.488   2.228
12520W        W65416  33.632   5.497   3.167
12521W        W65417  22.326  35.693   2.836
12522W        W65418  32.439  25.111   0.276
12523W        W65419  19.420  17.438   9.262
12524W        W65420  10.658  13.502   9.742
12525W        W65421  21.319  25.719   8.774
12526W        W65422  16.008  33.897   1.661
12527W        W65423  25.535   5.153   1.029
12528W        W65424  17.151  10.646   9.096
12529W        W65425   8.469  28.209   7.033
12530W        W65426  24.155  33.198   7.457
12531W        W65427  35.176  12.394   8.879
12532W        W65428   6.215   4.419   2.065
12533W        W65429  35.069  18.154   8.237
12534W        W65430  21.199  14.194   2.707
12535W        W65431   2.696  12.704  10.236
12536W        W65432  18.281  10.072   0.848
12537W        W65433  34.283  17.099   0.556
12538W        W65434  24.054  32.147   0.814
12539W        W65435   5.809  22.421   3.189
12540W        W65436  18.290  10.800   3.254
12541W        W65437  21.421  21.581   8.062
12542W        W65438  21.819  29.190   9.030
12543W        W65439   9.073   4.216   0.301
12544W        W65440  32.545   4.348   0.371
12545W        W65441  22.291  19.012   0.932
12546W        W65442  31.882  14.761   8.185
12547W        W65443  32.839   9.588   7.803
12548W        W65444   5.367  28.887   9.081
12549W        W65445  28.388  15.509   0.408
12550W        W65446  16.976  10.725   0.132
12551W        W65447  29.291   9.700   9.505
12552W        W65448  31.036   8.366   0.106
12553W        W65449  11.789  13.291   2.737
12554W        W65450  16.952  33.033   1.992
12555W        W65451  10.666   8.110   9.383
12556W        W65452   9.890  34.287   7.873
12557W        W65453  18.923  30.615   2.866
12558W        W65454  29.031  24.713   9.481
12559W        W65455   5.992  28.207   2.666
12560W        W65456  28.078  30.962   7.605
12561W        W65457   5.614  24.931   8.780
12562W        W65458  29.398  11.515   0.703
12563W        W65459  30.129  25.151   7.846
12564W        W65460  34.712  13.183   9.898
12565W        W65461   0.813   5.310   8.006
12566W        W65462  26.939  26.853   0.026
12567W        W65463   9.596  34.883   2.498
12568W        W65464  14.284  17.727   8.828
12569W        W65465  11.008  14.861  10.324
12570W        W65466  27.718  25.056  10.020
12571W        W65467  15.490  34.538   2.846
12572W        W65468  18.567  11.580   3.562
12573W        W65469  22.686  31.363   0.631
12574W        W65470  23.403  20.722   3.442
12575W        W65471   7.235   3.240   1.951
12576W        W65472  31.577  34.706   2.258
12577W        W65473  19.599  18.337   9.699
12578W        W65474   4.777  14.303   8.768
12579W        W65475  31.864  15.154   0.184
12580W        W65476  29.735  30.944   9.050
12581W        W65477  12.264  12.654   9.245
12582W        W65478  33.220   0.139   7.577
12583W        W65479  19.140  18.261   2.752
12584W        W65480  35.949  16.480   3.039
12585W        W65481  24.304  14.423   0.024
12586W        W65482  29.033  33.276   7.449
12587W        W65483  35.900  28.668   8.945
12588W        W65484  35.410  15.398   9.516
12589W        W65485  10.300  33.425   1.927
12590W        W65486  31.142   8.442   2.460
12591W        W65487   0.702  12.963   1.127
12592W        W65488   4.829  24.720   0.964
12593W        W65489  14.288  30.229   9.433
12594W        W65490  35.877  11.120   8.041
12595W        W65491  23.973   8.313   1.510
12596W        W65492   7.992   3.336   0.358
12597W        W65493  35.441  18.731   3.419
12598W        W65494  35.523   9.156   7.849
12599W        W65495  10.824  27.782   8.727
12600W        W65496  28.435   0.588   9.899
12601W        W65497  11.187  23.973   2.364
12602W        W65498   6.199  27.099   1.802
12603W        W65499   6.419  18.623   9.176
12604W        W65500  30.892  15.954   2.874
12605W        W65501  22.964  24.917   8.208
12606W        W65502   9.654   4.759  10.126
12607W        W65503  29.618  18.729   7.580
12608W        W65504  19.033  24.913   9.953
12609W        W65505   5.287  25.406   8.795
12610W        W65506  15.840  21.989   9.758
12611W        W65507  23.525   1.060   1.006
12612W        W65508  24.422  15.374   8.243
12613W        W65509  17.791  27.890   9.327
12614W        W65510  12.044  18.174   1.911
12615W        W65511  16.250   0.967   1.502
12616W        W65512  22.836  28.430   0.380
12617W        W65513   9.092   0.616   7.297
12618W        W65514  22.248  30.584   7.853
12619W        W65515  25.687  11.636   2.187
12620W        W65516  26.425  31.411   8.890
12621W        W65517  21.008   5.317   9.557
12622W        W65518   9.942  15.186   1.584
12623W        W65519   6.199  25.828   6.999
12624W        W65520  33.331   9.464   7.656
12625W        W65521   6.868  23.602   7.508
12626W        W65522  27.465  21.583   2.778
12627W        W65523   2.732   4.218   9.955
12628W        W65524  26.805  32.728   7.758
12629W        W65525  16.306   6.854   8.120
12630W        W65526  21.338   2.107   2.602
12631W        W65527   3.659  34.248   8.617
12632W        W65528  22.096  18.078   9.214
12633W        W65529  31.023   1.653   9.917
12634W        W65530   1.429  26.864   2.844
12635W        W65531  12.616  12.905   9.017
12636W        W65532  35.425   2.281   1.130
12637W        W65533  10.523  20.008   0.893
12638W        W65534  29.917  24.093   2.670
12639W        W65535  11.770  28.150   2.025
12640W        W65536  26.946  10.500   1.535
12641W        W65537  25.949  18.029   9.325
12642W        W65538   7.210   1.253   0.207
12643W        W65539  34.646  15.645   0.516
12644W        W65540  10.035   7.092   0.011
12645W        W65541   9.812  20.217  10.064
12646W        W65542   1.608   4.468   3.257
12647W        W65543  33.807   1.426   1.779
12648W        W65544  21.834   0.683   1.452
12649W        W65545  13.952   1.289   8.415
12650W        W65546   8.542  18.541   2.073
12651W        W65547  20.676  14.852   8.043
12652W        W65548  22.806   8.826   0.021
12653W        W65549  24.564  17.269   9.782
12654W        W65550  31.737  33.035   3.181
12655W        W65551  22.192   7.617   0.016
12656W        W65552  12.195   8.278   7.285
12657W        W65553  22.176  29.881   8.757
12658W        W65554   6.825  27.733   2.974
12659W        W65555  33.048  25.021   3.646
12660W        W65556   2.035  13.108   0.601
12661W        W65557  28.807  13.040   3.091
12662W        W65558   9.572   5.320   8.428
12663W        W65559  19.419  13.020   0.442
12664W        W65560  13.886  15.856   8.229
12665W        W65561  15.063  26.172   2.614
12666W        W65562   6.806   0.291   3.206
12667W        W65563  15.347   7.822   0.045
12668W        W65564  31.074  24.030   8.919
12669W        W65565  27.715   2.645   0.048
12670W        W65566  15.701  30.950   2.064
12671W        W65567  20.016  21.158   2.058
12672W        W65568  17.469  16.358   2.196
12673W        W65569  31.926  32.556   0.204
12674W        W65570  13.293  19.749   0.443
12675W        W65571  18.036  15.293   1.053
12676W        W65572  20.329  33.408   9.961
12677W        W65573   8.559   2.047   0.524
12678W        W65574  22.634  26.283   9.477
12679W        W65575  22.925  18.702   2.451
12680W        W65576  13.865  18.779  10.327
12681W        W65577  17.119   5.530   3.875
12682W        W65578  13.283   1.064   7.028
12683W        W65579  29.873  19.051   1.146
12684W        W65580  35.868   9.233   9.530
12685W        W65581  33.540  11.051   8.931
12686W        W65582   2.132  11.844   0.313
12687W        W65583  10.480  31.971   8.692
12688W        W65584  18.258  30.542   0.646
12689W        W65585  15.216  27.105   0.398
12690W        W65586  12.163  13.401  10.192
12691W        W65587  28.399  28.373  10.028
12692W        W65588  14.018  33.599   8.516
12693W        W65589  27.615  26.159   9.616
12694W        W65590  24.971  11.599   7.955
12695W        W65591   9.835  21.563  10.235
12696W        W65592   1.011  29.924   1.026
12697W        W65593   7.275  12.793   2.214
12698W        W65594  18.027  25.332   3.319
12699W        W65595  33.495   6.919   7.439
12700W        W65596  10.117   5.009   8.931
12701W        W65597  11.875  23.533   7.965
12702W        W65598  32.005  29.904  10.138
12703W        W65599   6.509  14.158   8.857
12704W        W65600   1.655   5.460   2.519
12705W        W65601  29.077  26.723   2.737
12706W        W65602  27.254   9.477  10.225
12707W        W65603  30.051  17.128   8.597
12708W        W65604  33.375  14.688   0.702
12709W        W65605   0.711   8.914   8.610
12710W        W65606  17.448  12.615   0.793
12711W        W65607   2.312   3.143   7.843
12712W        W65608  27.086   2.024   2.735
12713W        W65609   7.118   0.061  10.318
12714W        W65610  25.307  32.511   9.799
12715W        W65611   6.741  24.053   1.996
12716W        W65612   3.601  14.443   2.124
12717W        W65613   6.171   1.694   2.077
12718W        W65614  21.239  32.705   3.086
12719W        W65615  34.568   3.478   1.429
12720W        W65616   0.523  13.820   2.034
12721W        W65617   2.025   3.837   1.508
12722W        W65618  13.589  11.026   8.484
12723W        W65619  33.846   8.062   3.301
12724W        W65620  34.437  24.894   8.846
12725W        W65621  14.283  27.389   2.904
12726W        W65622   5.543   1.081   1.030
12727W        W65623   8.116  22.283   2.668
12728W        W65624  13.340  26.837   0.156
12729W        W65625   7.483  28.250   8.166
12730W        W65626   0.341  19.553   8.444
12731W        W65627  20.172  13.572   9.285
12732W        W65628  21.152  19.342   2.284
12733W        W65629  13.779  16.761   7.716
12734W        W65630   1.163   2.265   2.189
12735W        W65631  29.286   2.257   1.749
12736W        W65632  22.214  28.567   6.699
12737W        W65633   7.751  21.681   8.114
12738W        W65634  15.489  25.483   1.456
12739W        W65635  35.864   7.704   2.475
12740W        W65636  23.689   7.576   2.659
12741W        W65637  30.564   8.729   1.397
12742W        W65638  28.054  13.029   0.413
12743W        W65639  14.012   0.602   2.914
12744W        W65640  14.478  19.496   1.876
12745W        W65641  29.010   3.452   3.175
12746W        W65642  22.660   3.136   9.469
12747W        W65643  20.246  13.177   7.782
12748W        W65644   0.751  27.110   9.403
12749W        W65645  22.763   2.869   8.220
12750W        W65646  34.215  30.096   9.760
12751W        W65647   6.232  13.592   0.141
12752W        W65648  18.157   7.220   0.849
12753W        W65649  18.307  21.643  10.121
12754W        W65650  16.001  21.472   2.592
12755W        W65651  17.119  22.683   9.981
12756W        W65652  15.982  22.957   8.039
12757W        W65653  12.619  18.344   0.715
12758W        W65654   3.610  18.149   1.753
12759W        W65655  23.225  30.686   9.176
12760W        W65656  13.498  33.394   0.278
12761W        W65657   5.970  25.291   0.868
12762W        W65658   4.605  28.383   1.896
12763W        W65659  12.988  23.097   0.843
12764W        W65660  23.070   7.063   9.290
12765W        W65661   4.934   4.591   0.535
12766W        W65662  13.143  18.841   9.180
12767W        W65663  30.595  13.854   8.363
12768W        W65664   6.021  32.283   7.539
12769W        W65665   3.897  18.779   7.604
12770W        W65666  11.807   3.710   1.289
12771W        W65667   8.955  20.355   3.164
12772W        W65668   3.725   3.147   2.547
12773W        W65669  24.028  33.727   9.346
12774W        W65670  29.445   4.179   9.633
12775W        W65671  10.360   8.496   1.234
12776W        W65672  19.664  27.368   1.801
12777W        W65673   1.299  13.702   1.368
12778W        W65674  14.406   4.642   8.817
12779W        W65675   9.264  19.405   0.681
12780W        W65676  12.042  32.384   3.146
12781W        W65677  27.322  23.718   9.561
12782W        W65678   1.053  19.861   1.849
12783W        W65679  30.028   9.122   0.450
12784W        W65680   9.843  33.147   2.716
12785W        W65681   0.967  10.362   1.187
12786W        W65682  25.817   9.957   2.638
12787W        W65683   5.051   0.114   9.233
12788W        W65684   7.144  27.060   2.170
12789W        W65685   8.754  24.460   9.684
12790W        W65686  12.570   5.830   8.063
12791W        W65687  31.300  18.220   9.114
12792W        W65688  12.241  13.324   8.620
12793W        W65689  31.569  16.301   8.517
12794W        W65690   8.830  28.135   9.099
12795W        W65691  26.463  26.455   1.911
12796W        W65692  29.810  19.442   9.281
12797W        W65693  28.880  26.400   9.853
12798W        W65694  16.530   7.063   9.035
12799W        W65695   5.811  10.362   8.453
12800W        W65696  29.151   2.690   0.955
12801W        W65697  25.033   1.675   9.147
12802W        W65698   7.162  25.848   7.753
12803W        W65699  25.507  24.854   0.812
12804W        W65700  13.160  21.814   0.312
12805W        W65701  15.315   1.608   8.961
12806W        W65702  29.766  23.330   7.116
12807W        W65703  13.482  26.206   2.663
12808W        W65704  18.009  23.907   0.079
12809W        W65705  16.186  19.801   9.215
12810W        W65706  12.230  33.431   1.219
12811W        W65707  22.857   1.038   8.388
12812W        W65708  32.335  32.331   2.260
12813W        W65709  18.978  17.889   7.841
12814W        W65710   5.826  12.484   0.318
12815W        W65711  32.113  27.912   3.869
12816W        W65712  27.695  19.902  10.206
12817W        W65713  31.912  29.436   1.041
12818W        W65714  32.387  20.401   8.191
12819W        W65715  31.176  20.545   8.746
12820W        W65716  13.488  10.048   3.118
12821W        W65717  23.912  33.478   8.881
12822W        W65718  24.183  31.576   9.622
12823W        W65719  31.965  22.133   2.995
12824W        W65720   3.356  31.004   8.138
12825W        W65721  12.545   2.123   8.504
12826W        W65722  19.360  14.227   2.483
12827W        W65723  14.725  15.773   8.618
12828W        W65724  27.485  27.224   8.362
12829W        W65725  11.709   8.373   1.902
12830W        W65726   2.219  19.272   0.424
12831W        W65727  26.437   1.437   7.552
12832W        W65728   6.626  17.389   7.910
12833W        W65729  24.737  20.442   2.355
12834W        W65730  34.031  28.525   8.728
12835W        W65731  10.657   6.272   8.831
12836W        W65732   3.247  22.575   3.279
12837W        W65733  20.768   4.106   8.711
12838W        W65734  33.291  13.858   1.372
12839W        W65735   8.572  14.998  10.047
12840W        W65736  10.876  20.716   1.945
12841W        W65737  30.672   1.612   2.287
12842W        W65738   7.839  18.586   8.346
12843W        W65739   4.167  29.572   2.424
12844W        W65740  32.467  32.552   1.124
12845W        W65741   8.292  15.514   9.024
12846W        W65742  15.580  22.733  10.303
12847W        W65743   9.124   9.487   2.818
12848W        W65744   2.556  14.167   3.360
12849W        W65745  13.245  20.710   1.177
12850W        W65746  15.895  29.459   7.985
12851W        W65747   3.627   6.714   7.480
12852W        W65748  24.805   2.170   9.296
12853W        W65749  32.229  18.113   2.048
12854W        W65750  32.608  14.158   7.694
12855W        W65751  34.223  16.197   2.827
12856W        W65752  17.104  27.008   0.934
12857W        W65753  31.404  22.072   2.957
12858W        W65754   9.537  24.310   8.803
12859W        W65755  13.955  27.936   1.614
12860W        W65756  29.583   3.230   7.961
12861W        W65757  29.649  30.824   8.501
12862W        W65758  34.715  26.675   2.992
12863W        W65759  24.853  34.648   2.193
12864W        W65760  16.767  12.731   0.243
12865W        W65761   7.878  22.023   1.713
12866W        W65762  27.935  11.094   0.816
12867W        W65763   0.172  25.384   8.850
12868W        W65764  33.207   2.762   2.366
12869W        W65765  33.086  31.903   0.629
12870W        W65766  15.322   1.179   2.575
12871W        W65767  13.012  19.987   0.120
12872W        W65768   1.087  32.926   0.535
12873W        W65769  31.722   2.665  10.219
12874W        W65770  22.011  25.721   9.542
12875W        W65771  35.273   4.715   9.961
12876W        W65772  25.021  22.225   2.922
12877W        W65773   4.113   6.257   3.649
12878W        W65774   7.690  25.961   2.743
12879W        W65775  16.836  28.738   9.339
12880W        W65776  15.073   8.148   1.738
12881W        W65777  15.038  26.657   9.443
12882W        W65778   0.596  25.617   1.599
12883W        W65779   0.909  24.231   9.405
12884W        W65780  20.269  15.256   2.590
12885W        W65781   8.539  28.047   2.644
12886W        W65782  27.397   0.207   1.150
12887W        W65783  29.864  32.280   7.692
12888W        W65784   9.316  26.849   8.294
12889W        W65785   8.397  29.709   9.476
12890W        W65786   5.446  17.030   2.566
12891W        W65787  26.377  33.869   9.377
12892W        W65788  15.491  11.621   0.432
12893W        W65789  35.875  21.461   9.491
12894W        W65790  18.570   5.153   8.794
12895W        W65791  35.527  10.856   1.438
12896W        W65792  13.924   9.073   7.477
12897W        W65793   9.375   9.672   2.397
12898W        W65794  18.638  18.349  10.175
12899W        W65795   1.973  28.753   1.300
12900W        W65796  15.318  22.132   0.425
12901W        W65797  30.495  12.249   2.079
12902W        W65798  15.593  17.601   9.744
12903W        W65799  10.025   0.770   1.782
12904W        W65800  29.140  33.487  10.259
12905W        W65801  22.928   4.538   0.438
12906W        W65802   4.420  26.293   1.278
12907W        W65803  14.384   7.842   1.215
12908W        W65804  34.646  14.631   1.158
12909W        W65805  17.841   9.678   0.370
12910W        W65806  20.286  25.904   8.020
12911W        W65807   1.838  30.287   8.102
12912W        W65808  30.228   3.782   9.709
12913W        W65809   6.581  23.929   8.894
12914W        W65810  10.057  19.054   8.322
12915W        W65811  11.740  30.212   0.781
12916W        W65812  21.510  35.868   2.203
12917W        W65813  17.772  16.027   9.122
12918W        W65814  14.822  27.744   0.894
12919W        W65815  24.386   5.127   3.422
12920W        W65816   5.703  15.911   8.584
12921W        W65817  32.438  27.559   2.067
12922W        W65818  30.321  29.940   9.927
12923W        W65819  16.298  30.322   2.656
12924W        W65820  15.310  28.944   8.820
12925W        W65821  26.172  11.687  10.068
12926W        W65822  32.300  16.627   1.423
12927W        W65823  26.545   5.855   2.249
12928W        W65824   9.685  21.000   8.454
12929W        W65825  21.688   0.771   9.102
12930W        W65826  25.413  23.792   0.585
12931W        W65827   4.851  34.235   2.321
12932W        W65828  16.805   0.679   7.864
12933W        W65829  10.373   3.411   2.206
12934W        W65830  10.910   2.166   8.350
12935W        W65831   3.104  10.619   0.919
12936W        W65832  11.820   0.356   1.325
12937W        W65833   0.770  19.716   3.257
12938W        W65834  22.541  11.156   1.674
12939W        W65835  22.105  23.912   1.880
12940W        W65836  23.652  11.491   3.354
12941W        W65837  15.400  21.549   0.501
12942W        W65838  11.972  20.062   0.440
12943W        W65839  10.662  26.658   9.023
12944W        W65840  24.941  16.923   1.895
12945W        W65841  19.848  31.320   8.734
12946W        W65842  12.782  24.015   9.046
12947W        W65843  17.819  10.548   0.848
12948W        W65844  35.391  28.449   9.231
12949W        W65845  32.911  33.100   3.160
12950W        W65846   0.352   9.709   2.143
12951W        W65847  35.587  35.879   0.793
12952W        W65848   4.748  35.158   8.886
12953W        W65849  21.810  26.439   9.895
12954W        W65850  33.011  21.746   8.737
12955W        W65851  18.492   6.017   9.280
12956W        W65852  24.938   8.034   0.973
12957W        W65853  33.308   7.676  10.111
12958W        W65854  12.163   0.716   1.310
12959W        W65855   8.192  23.139  10.151
12960W        W65856  13.075  26.988   2.725
12961W        W65857  17.420  13.932   7.904
12962W        W65858  11.705   3.474   0.850
12963W        W65859   8.665   6.586   7.887
12964W        W65860  15.978  12.589   3.036
12965W        W65861   8.716  21.780   3.319
12966W        W65862  20.984   2.795   8.044
12967W        W65863  28.630   2.270   1.971
12968W        W65864  17.890  24.776   3.433
12969W        W65865  14.960  20.223  10.028
12970W        W65866   3.691  11.250   1.079
12971W        W65867  25.571   3.544   0.721
12972W        W65868   1.282  29.380   3.847
12973W        W65869   4.894  17.242   1.982
12974W        W65870  23.251   1.538   2.597
12975W        W65871  14.246  30.412   1.911
12976W        W65872  29.072  32.956   1.585
12977W        W65873  29.163  33.941   1.724
12978W        W65874  28.037  25.485  10.033
12979W        W65875   9.723   3.239   0.203
12980W        W65876  25.867   7.260   1.058
12981W        W65877  10.077  11.346   7.391
12982W        W65878  22.799   8.650   2.693
12983W        W65879  23.123  30.420   2.376
12984W        W65880   6.572  16.964   8.169
12985W        W65881  18.974  32.261   7.769
12986W        W65882   7.962  20.032   0.930
12987W        W65883  13.624   1.019   9.534
12988W        W65884   2.347  35.924   2.268
12989W        W65885  11.349  25.393   8.068
12990W        W65886  10.315   8.008   1.722
12991W        W65887   1.876   6.528   1.309
12992W        W65888   3.021  14.571   1.582
12993W        W65889  28.673  24.854   9.791
12994W        W65890   8.762   2.497   2.402
12995W        W65891  11.927   1.287   1.349
12996W        W65892  11.833  18.383   8.381
12997W        W65893  10.788   6.759   1.350
12998W        W65894  25.821  20.982   8.482
12999W        W65895  17.936  21.062   2.473
13000W        W65896  32.558  18.471   1.029
13001W        W65897  13.600   4.887   8.060
13002W        W65898   7.986  27.197   8.451
13003W        W65899  30.881   4.924   8.740
13004W        W65900  17.210  21.745   0.539
13005W        W65901   0.054  19.162   0.934
13006W        W65902  22.182   2.019   1.461
13007W        W65903  34.335  29.223   8.235
13008W        W65904  31.803  14.826   8.739
13009W        W65905   6.325   3.656   7.691
13010W        W65906  16.116  11.352   1.176
13011W        W65907   6.024  20.414   9.438
13012W        W65908  13.746   0.298   2.051
13013W        W65909  21.600   6.104   1.024
13014W        W65910  16.402   3.689   7.527
13015W        W65911  28.764  18.525   8.677
13016W        W65912  31.075  10.899   8.585
13017W        W65913   9.016  20.601   2.699
13018W        W65914  21.076  25.267   3.404
13019W        W65915  16.098  23.961   9.843
13020W        W65916  20.271  21.382   9.847
13021W        W65917  19.294   5.895   1.502
13022W        W65918   5.564   7.425   3.290
13023W        W65919  29.763  20.796   2.853
13024W        W65920   2.690  18.284   0.066
13025W        W65921  27.643  14.842   9.408
13026W        W65922  21.944   3.530   3.022
13027W        W65923  19.648  20.076   2.712
13028W        W65924  14.930  29.728   1.542
13029W        W65925  23.386  35.698   9.125
13030W        W65926  19.233  14.421   8.026
13031W        W65927  34.864  14.765   2.954
13032W        W65928  34.501  15.483   1.535
13033W        W65929  35.697  27.613  10.195
13034W        W65930   0.645  22.981   1.742
13035W        W65931  29.697   6.351   3.396
13036W        W65932  12.662  10.012   8.427
13037W        W65933  10.147  17.879   1.530
13038W        W65934  29.730  28.358   1.441
13039W        W65935  14.222  16.155   8.498
13040W        W65936  10.612  19.708   0.233
13041W        W65937  21.235  17.942   0.886
13042W        W65938  14.232  14.899   7.863
13043W        W65939  26.796  35.843   3.310
13044W        W65940   7.802   1.973   7.560
13045W        W65941   3.189   6.480   8.118
13046W        W65942  29.359  17.531   9.774
13047W        W65943   3.684  10.355   9.135
13048W        W65944  28.848  13.869   8.451
13049W        W65945  15.262  24.379   2.496
13050W        W65946   8.647   9.689  10.071
13051W        W65947  19.280  13.500   2.399
13052W        W65948   7.008  23.013   0.605
13053W        W65949  17.298  34.831   0.679
13054W        W65950   1.066  15.583   2.926
13055W        W65951  26.035  21.021   0.985
13056W        W65952   5.284  17.493   1.797
13057W        W65953   5.731  31.784   2.996
13058W        W65954  16.428  12.364   0.217
13059W        W65955  28.881  35.521   0.080
13060W        W65956  21.685   5.682   0.678
13061W        W65957   1.710   0.237   9.213
13062W        W65958  16.656  31.307   3.065
13063W        W65959  33.304  21.664   1.671
13064W        W65960   9.619  22.348   9.682
13065W        W65961   5.496  12.680   1.586
13066W        W65962   7.500   4.756   0.667
13067W        W65963   2.134   1.552   0.149
13068W        W65964  20.915  25.102   1.049
13069W        W65965   2.279   7.998   3.166
13070W        W65966  14.988  30.796   1.175
13071W        W65967  31.972   3.143   9.773
13072W        W65968  16.923   5.230   1.720
13073W        W65969  13.678  21.054   3.247
13074W        W65970  12.607   2.990   2.060
13075W        W65971   5.263  14.020   7.891
13076W        W65972   9.924  16.498   0.168
13077W        W65973  29.696   7.303   9.279
13078W        W65974   1.271   5.387   0.952
13079W        W65975  11.522  10.901  10.035
13080W        W65976   0.906  15.148   3.312
13081W        W65977  19.104  31.462   9.627
13082W        W65978  28.534   1.004   0.053
13083W        W65979  32.439  17.451   2.276
13084W        W65980   4.926  34.726   0.102
13085W        W65981  32.684  32.858   9.339
13086W        W65982  16.604   9.192   9.448
13087W        W65983  18.178   0.103   2.277
13088W        W65984  23.991  14.022   8.848
13089W        W65985  25.657  25.541   2.448
13090W        W65986  12.197  16.267   2.529
13091W        W65987  15.230   8.498   8.616
13092W        W65988  10.728   9.276   9.427
13093W        W65989  32.606  33.861   9.563
13094W        W65990  32.025   2.291   0.086
13095W        W65991  33.440   2.897   9.753
13096W        W65992   2.811   0.995   2.664
13097W        W65993  30.237  19.166   8.082
13098W        W65994  31.849  16.754   2.499
13099W        W65995  20.685  31.244   8.896
13100W        W65996   8.601   5.722   9.047
13101W        W65997  29.857  23.024   9.123
13102W        W65998  13.326   0.867  10.223
13103W        W65999  15.936  28.874   8.796
13104W        W66000   9.761  30.316   2.695
13105W        W66001   8.791  22.853   0.158
13106W        W66002  17.708  22.509   2.963
13107W        W66003  18.805   2.062   1.239
13108W        W66004  23.307  30.564   0.767
13109W        W66005  30.356  27.229   7.709
13110W        W66006  14.374   6.490   2.486
13111W        W66007   6.853   8.522   0.724
13112W        W66008  26.153  35.170   8.088
13113W        W66009  20.974   4.493   8.949
13114W        W66010  33.612  25.625   9.086
13115W        W66011   3.579  20.900   9.782
13116W        W66012  27.238  21.420   8.921
13117W        W66013  32.026  19.238   9.675
13118W        W66014  13.933  35.036   7.895
13119W        W66015  18.782  18.687   1.952
13120W        W66016  33.968   2.166   2.166
13121W        W66017   0.001  14.612   1.631
13122W        W66018  33.085   0.733   0.288
13123W        W66019  26.280   8.424   2.209
13124W        W66020   0.436   5.819   2.428
13125W        W66021   6.884   3.131   2.520
13126W        W66022  25.605   7.118   0.441
13127W        W66023   2.115   1.404   2.333
13128W        W66024  27.634  29.018   9.069
13129W        W66025  33.241  11.319   8.134
13130W        W66026  26.160  15.579   2.747
13131W        W66027  18.774   5.503   0.690
13132W        W66028  28.645   5.614   3.021
13133W        W66029   2.444  35.629   2.820
13134W        W66030  14.779   9.695   3.150
13135W        W66031  33.581  32.817   2.969
13136W        W66032  24.006  18.187   9.747
13137W        W66033  15.271  17.962   9.092
13138W        W66034   0.887   0.519   2.332
13139W        W66035  14.992   4.395  10.050
13140W        W66036   0.709   2.144   9.622
13141W        W66037  13.817  12.371   2.571
13142W        W66038  29.582  16.157   7.862
13143W        W66039   3.605   7.809   1.142
13144W        W66040  20.823  28.438   8.345
13145W        W66041  31.603   2.722   1.696
13146W        W66042  13.365   2.345   2.933
13147W        W66043  29.274  28.874   9.998
13148W        W66044  28.360  17.969   1.726
13149W        W66045  20.049  33.976   1.467
13150W        W66046  14.806  15.291   1.913
13151W        W66047   8.691  18.002   2.325
13152W        W66048  11.911   0.489   3.169
13153W        W66049  14.281   0.495   8.815
13154W        W66050  16.308  25.618   8.454
13155W        W66051  27.310  22.043   8.858
13156W        W66052   6.924   6.912   1.183
13157W        W66053   2.137  34.197   2.616
13158W        W66054   0.310  26.901  10.234
13159W        W66055   8.187  35.147  10.194
13160W        W66056  20.092  14.057   2.226
13161W        W66057   2.396  32.742   1.845
13162W        W66058  12.288  27.672   2.547
13163W        W66059   5.072   7.114   1.319
13164W        W66060  33.234  33.136   1.236
13165W        W66061  27.609  21.905   8.408
13166W        W66062  20.244  27.247   0.793
13167W        W66063   0.482  13.786   1.539
13168W        W66064  14.613   0.873   8.214
13169W        W66065  12.033  23.357   0.753
13170W        W66066   3.964   9.685   2.140
13171W        W66067  17.930   3.806   2.169
13172W        W66068  29.912  15.362   8.401
13173W        W66069  14.621  20.738   3.181
13174W        W66070  32.980  11.656   9.021
13175W        W66071  33.611   6.308   0.798
13176W        W66072  13.009   7.830   9.402
13177W        W66073  33.633  34.611   1.664
13178W        W66074  35.995  35.178  10.256
13179W        W66075  35.507  19.785   8.433
13180W        W66076   1.748  34.333   8.086
13181W        W66077  28.845   5.827   2.597
13182W        W66078  17.941  26.748   2.317
13183W        W66079   4.333  18.374   3.309
13184W        W66080  11.257   6.262  10.234
13185W        W66081  30.991   2.981   0.603
13186W        W66082  32.575   8.586   2.446
13187W        W66083  27.053  18.248   0.099
13188W        W66084   3.720  29.706   9.687
13189W        W66085  20.210  33.375   7.715
13190W        W66086  25.262  16.336   1.723
13191W        W66087   1.221  24.886   0.908
13192W        W66088  28.506  11.481   1.714
13193W        W66089  20.272  27.992   8.944
13194W        W66090   2.657  23.618   0.666
13195W        W66091  23.379  22.312   7.900
13196W        W66092   6.206   6.691   9.843
13197W        W66093  13.404  12.562   3.429
13198W        W66094  30.620  29.570   1.052
13199W        W66095  24.242  32.327   1.815
13200W        W66096  12.617   3.887   2.166
13201W        W66097   9.945   1.017   7.605
13202W        W66098   8.952   0.302   0.695
13203W        W66099   6.093  25.783   8.492
13204W        W66100  17.357  15.485   0.729
13205W        W66101   8.772   3.775   8.090
13206W        W66102  13.304  32.076   9.322
13207W        W66103   8.241   7.126   2.978
13208W        W66104   4.157   6.801   1.986
13209W        W66105  16.621  24.212   8.380
13210W        W66106  30.100  24.761   8.225
13211W        W66107  27.555   8.740   2.118
13212W        W66108   4.219  17.101   8.058
13213W        W66109   1.539  33.339   3.295
13214W        W66110  35.647  33.886   8.930
13215W        W66111  26.506  10.704   8.280
13216W        W66112  18.374  11.476   1.481
13217W        W66113   0.991  27.517   1.252
13218W        W66114  23.685  15.023   1.402
13219W        W66115  16.772  15.683   1.030
13220W        W66116  11.946  33.765   9.404
13221W        W66117  15.255  17.325   4.114
13222W        W66118  25.489   5.439   8.485
13223W        W66119  11.786  29.756   0.565
13224W        W66120  15.980   8.021   2.663
13225W        W66121   2.674   9.626   2.145
13226W        W66122   2.278   0.330   9.410
13227W        W66123  34.676   0.269   3.034
13228W        W66124  17.157  32.940  10.111
13229W        W66125   4.644  18.768   9.098
13230W        W66126   9.289  14.642   0.253
13231W        W66127  12.538  17.602   0.087
13232W        W66128   1.891   1.797   8.123
13233W        W66129  21.974  21.765   2.286
13234W        W66130  12.566  26.283   8.664
13235W        W66131  18.718  20.225   9.914
13236W        W66132  32.905   1.509   0.638
13237W        W66133   9.398  35.496   8.593
13238W        W66134   9.658   8.348   8.299
13239W        W66135   0.310   6.199   2.087
13240W        W66136  16.657  30.632   2.518
13241W        W66137   0.168  13.939   9.249
13242W        W66138  32.661  34.050   0.364
13243W        W66139   1.790  14.329   2.695
13244W        W66140  18.401  33.784  10.037
13245W        W66141  22.308  33.857   0.284
13246W        W66142   5.902   2.758   2.713
13247W        W66143  19.757   5.417   0.340
13248W        W66144  10.718  32.369   1.397
13249W        W66145  13.365  14.325   0.776
13250W        W66146  27.511   3.896   7.514
13251W        W66147  25.769  24.014   0.922
13252W        W66148  31.836  19.847   1.446
13253W        W66149  30.381  30.812   8.874
13254W        W66150   6.299  20.946   1.361
13255W        W66151   2.972  19.515   8.944
13256W        W66152   5.633  22.210   1.551
13257W        W66153   3.543  15.222   8.468
13258W        W66154   4.562  19.807   0.695
13259W        W66155  12.143  13.522   2.060
13260W        W66156  19.074  31.745   0.299
13261W        W66157  19.272  28.306   0.563
13262W        W66158  14.267  12.264   7.958
13263W        W66159  12.350  18.674   1.005
13264W        W66160   3.741  17.358   2.830
13265W        W66161  24.033  16.569   1.418
13266W        W66162  11.842   8.739   0.573
13267W        W66163  30.054  15.586   9.942
13268W        W66164  11.871   5.296   1.156
13269W        W66165  13.780  27.856   7.466
13270W        W66166  10.796  13.277   8.993
13271W        W66167   6.357  25.870   0.358
13272W        W66168   7.325   8.447   0.365
13273W        W66169   0.827   6.185   0.799
13274W        W66170  32.834   1.017   3.212
13275W        W66171  32.915  13.633   0.294
13276W        W66172  26.501  31.359   8.387
13277W        W66173  19.185  12.686   0.128
13278W        W66174  23.642  27.832   3.034
13279W        W66175  22.604  28.309   9.784
13280W        W66176  33.361  19.802   1.918
13281W        W66177  23.618   1.675   8.547
13282W        W66178  23.522  33.627   7.644
13283W        W66179   1.331  30.210   2.790
13284W        W66180  27.860  29.707  10.168
13285W        W66181  33.726  22.995   2.012
13286W        W66182   2.135  31.558   0.087
13287W        W66183   9.192  19.500   8.009
13288W        W66184   7.838  31.683   0.612
13289W        W66185   9.085   7.002  10.338
13290W        W66186  11.109   2.392   9.671
13291W        W66187  18.184  28.982   1.598
13292W        W66188  33.012  17.554   3.518
13293W        W66189  27.953  35.327   7.542
13294W        W66190   9.057  31.850   8.218
13295W        W66191  16.095   3.619   2.230
13296W        W66192  10.736  11.917   9.192
13297W        W66193   2.971  25.536   1.281
13298W        W66194  15.670  32.497  10.228
13299W        W66195  20.429   0.060   2.369
13300W        W66196  33.889  27.359   0.345
13301W        W66197   6.139  12.082   2.033
13302W        W66198  11.233  27.881   1.224
13303W        W66199   8.493   5.895   9.699
13304W        W66200  35.509   0.187   2.020
13305W        W66201  21.043  32.359  10.284
13306W        W66202  15.129  25.340   7.490
13307W        W66203  19.628   2.647   3.311
13308W        W66204  28.952  34.883   2.009
13309W        W66205   9.623  17.762   3.545
13310W        W66206  31.437   9.792   9.185
13311W        W66207  10.425  15.679   8.035
13312W        W66208  29.227  28.418   1.409
13313W        W66209  35.008  14.492   1.808
13314W        W66210   2.129  10.975   8.728
13315W        W66211  35.988  20.322   9.216
13316W        W66212   2.863  20.579   7.978
13317W        W66213   3.426   8.631   9.384
13318W        W66214   0.381   7.042   2.320
13319W        W66215  14.500  15.142   0.440
13320W        W66216   4.173  31.482   8.599
13321W        W66217  13.966  27.589   9.642
13322W        W66218   5.051   8.343   0.583
13323W        W66219  18.027  27.166   7.796
13324W        W66220  29.630  24.505   9.105
13325W        W66221  34.309  17.489   2.882
13326W        W66222  10.656  34.346   7.920
13327W        W66223  33.795  28.490   2.742
13328W        W66224  19.943  30.439   3.216
13329W        W66225  16.556  32.914   2.227
13330W        W66226  34.651  34.202   1.805
13331W        W66227  29.269  25.459   2.732
13332W        W66228  16.734  22.647   8.297
13333W        W66229  10.678  21.908   8.223
13334W        W66230   4.742  27.397  10.051
13335W        W66231  10.627  17.690   8.050
13336W        W66232  11.598   8.337   8.711
13337W        W66233  20.997  34.027   1.757
13338W        W66234  27.315  19.461   8.751
13339W        W66235  31.551   3.377   1.076
13340W        W66236  35.352   2.074   0.366
13341W        W66237  16.362  34.051   2.956
13342W        W66238  33.959   8.562   9.281
13343W        W66239   7.635  21.359   7.252
13344W        W66240  18.691  10.948   2.333
13345W        W66241  12.330  13.361   7.577
13346W        W66242  28.299  22.366   7.625
13347W        W66243  26.132   4.904   0.966
13348W        W66244  17.076  15.224   9.763
13349W        W66245  24.106  11.169   9.722
13350W        W66246   0.637  28.914   8.512
13351W        W66247  23.834  25.498   9.107
13352W        W66248   0.552   8.330   3.436
13353W        W66249   2.012  32.152   2.153
13354W        W66250  13.466  30.637   1.234
13355W        W66251  17.184   3.074   1.388
13356W        W66252  29.520  17.228   8.886
13357W        W66253  31.341   0.140   0.043
13358W        W66254  13.625  22.278   3.448
13359W        W66255   5.808  14.198   0.811
13360W        W66256   2.599  13.396   2.053
13361W        W66257  18.173   4.315   1.109
13362W        W66258  11.314  20.726   9.670
13363W        W66259  30.383  15.174   8.282
13364W        W66260  31.259  25.310   1.117
13365W        W66261   1.071   2.949   9.413
13366W        W66262   3.796   2.194   0.500
13367W        W66263  15.470  23.589   1.970
13368W        W66264  29.312  18.288   7.462
13369W        W66265  33.555   7.234  10.210
13370W        W66266  12.053  11.293   1.586
13371W        W66267   9.967   2.309   9.937
13372W        W66268  22.206  29.139   0.418
13373W        W66269  10.354  19.546   9.582
13374W        W66270  34.504  23.036   9.597
13375W        W66271  26.005  33.858   1.153
13376W        W66272  15.084   8.510   2.752
13377W        W66273  12.491  24.120   9.531
13378W        W66274  14.678  26.279   8.717
13379W        W66275   5.043  11.855   1.751
13380W        W66276   6.697  11.148   8.847
13381W        W66277  11.130   8.490   1.145
13382W        W66278   9.202  31.435   1.343
13383W        W66279   2.444  22.999   0.073
13384W        W66280  34.321  13.325   7.982
13385W        W66281   4.909   4.891   3.126
13386W        W66282  17.913  33.900   2.357
13387W        W66283  21.862  31.864   0.104
13388W        W66284  10.107  10.143   0.704
13389W        W66285   8.992  18.802  10.309
13390W        W66286  34.877  16.780   3.908
13391W        W66287  22.843   1.394   7.836
13392W        W66288   0.264  13.527   0.461
13393W        W66289  13.680  22.972   7.784
13394W        W66290  27.010  12.379   9.618
13395W        W66291  25.646  31.066   1.880
13396W        W66292   8.812   7.269   0.903
13397W        W66293  28.873   9.503   2.271
13398W        W66294  15.244  20.267   9.588
13399W        W66295  29.358  16.242   1.387
13400W        W66296  19.687   0.797   0.625
13401W        W66297   4.582  23.489   1.331
13402W        W66298  11.330   3.691   3.062
13403W        W66299  17.436   3.364   9.888
13404W        W66300  20.198  21.183   2.566
13405W        W66301  30.776  30.204   9.942
13406W        W66302  15.500  25.831   8.653
13407W        W66303  20.293  24.256   7.726
13408W        W66304  10.448   7.840   2.415
13409W        W66305  32.667  15.129   8.773
13410W        W66306   2.550   7.632   8.319
13411W        W66307  33.356  26.479   1.433
13412W        W66308  12.029  17.185   9.959
13413W        W66309  19.734   5.939   7.633
13414W        W66310   4.269   8.485   7.607
13415W        W66311  26.053  24.460   1.389
13416W        W66312  13.146  15.063   1.345
13417W        W66313  22.576   9.366   2.078
13418W        W66314  34.757  28.811  10.333
13419W        W66315  11.376  15.934   7.874
13420W        W66316  20.015  10.860   9.759
13421W        W66317  33.011   5.993   8.110
13422W        W66318  35.557  28.362   7.955
13423W        W66319  15.179  36.005   8.711
13424W        W66320  13.740   6.673   9.223
13425W        W66321  24.417  33.216   2.221
13426W        W66322   1.259   4.167   2.317
13427W        W66323  10.416   9.057   7.506
13428W        W66324   2.451  18.474   3.538
13429W        W66325  30.110  24.250   7.644
13430W        W66326   3.436  12.970   1.509
13431W        W66327  16.513   5.674   0.998
13432W        W66328  23.825  16.336   8.759
13433W        W66329  24.990  20.247   8.953
13434W        W66330   4.350  32.917   9.438
13435W        W66331  23.158  34.370   9.341
13436W        W66332  12.347  11.063   8.633
13437W        W66333  30.489  12.216   7.635
13438W        W66334  20.163  20.352   3.478
13439W        W66335  23.926  31.627   9.183
13440W        W66336  21.126   6.792   8.295
13441W        W66337  25.383  27.850   9.473
13442W        W66338  11.574   0.620   2.481
13443W        W66339   0.764   7.353   9.884
13444W        W66340  26.331  15.742   1.989
13445W        W66341   2.329  17.275   1.321
13446W        W66342   5.781  21.494   2.656
13447W        W66343  15.305  11.185   3.404
13448W        W66344  24.726  33.929   7.949
13449W        W66345  14.007  35.938   8.594
13450W        W66346   9.441  34.412   0.188
13451W        W66347   2.642  27.774   0.318
13452W        W66348  25.750  15.139   9.248
13453W        W66349  13.580   6.365   8.251
13454W        W66350   5.681  17.166   9.357
13455W        W66351  23.962   8.319   9.565
13456W        W66352   5.391   7.582   1.121
13457W        W66353  27.082  17.345   1.440
13458W        W66354  28.171   6.015   3.604
13459W        W66355  16.847  14.040   8.686
13460W        W66356  22.870  17.488   9.042
13461W        W66357  34.267  13.707   2.066
13462W        W66358   0.890  21.983   0.135
13463W        W66359   4.129  14.100   4.069
13464W        W66360  12.630   5.884   2.915
13465W        W66361   4.827   9.117   2.974
13466W        W66362   8.138  30.756   8.016
13467W        W66363  24.888  17.242   3.083
13468W        W66364  28.846  15.095   9.918
13469W        W66365  31.346   3.658   0.113
13470W        W66366  27.591  11.119   8.915
13471W        W66367  28.265  32.928   1.180
13472W        W66368  11.425   4.005   1.219
13473W        W66369  10.279  23.205   8.557
13474W        W66370   2.265  34.898   2.235
13475W        W66371  10.434   4.499   0.141
13476W        W66372  13.924   6.450   2.675
13477W        W66373  32.638  32.293   2.648
13478W        W66374   5.157   4.401   8.672
13479W        W66375  23.618  29.052   9.508
13480W        W66376  31.327  27.970   1.831
13481W        W66377  30.190   7.967   1.652
13482W        W66378   9.673  15.959   2.251
13483W        W66379   0.816   0.280   9.238
13484W        W66380  10.152   2.564   1.611
13485W        W66381  15.768  23.790   9.454
13486W        W66382  32.761   9.993   7.364
13487W        W66383  15.173   1.351   2.030
13488W        W66384  27.959  32.155   1.675
13489W        W66385   4.622  30.278   1.281
13490W        W66386  33.758  33.215   8.375
13491W        W66387  22.422  12.626   1.399
13492W        W66388   3.864  23.618   8.035
13493W        W66389   9.070   9.642   1.989
13494W        W66390  35.310  20.721   3.023
13495W        W66391  30.929   4.848   2.211
13496W        W66392   3.657  32.887   2.424
13497W        W66393  12.603  21.957   8.536
13498W        W66394  17.364  32.591   3.517
13499W        W66395  27.588   6.376   9.159
13500W        W66396  21.180  21.379   2.463
13501W        W66397   9.320   9.974   0.615
13502W        W66398  15.942   3.890   9.377
13503W        W66399  31.226  24.972   1.710
13504W        W66400   5.574  31.387   2.518
13505W        W66401  19.927   6.617   1.678
13506W        W66402  19.146   7.202   1.550
13507W        W66403  14.492  32.231   2.480
13508W        W66404   3.395  23.721   9.780
13509W        W66405  10.806  18.237   1.127
13510W        W66406  13.825  30.423   9.446
13511W        W66407   4.713  24.803   9.972
13512W        W66408   4.191  16.173   2.035
13513W        W66409  32.350   6.487   9.855
13514W        W66410   9.302  18.409   2.893
13515W        W66411   6.726  26.265   0.258
13516W        W66412  16.214   2.415   1.611
13517W        W66413  29.797  13.765   3.873
13518W        W66414  19.094   6.637   2.477
13519W        W66415  13.619  25.877   0.590
13520W        W66416   1.684  26.640   1.205
13521W        W66417  16.040   8.725   1.178
13522W        W66418  10.373  21.786   2.141
13523W        W66419  26.810  30.971   7.519
13524W        W66420  11.527  30.671   2.977
13525W        W66421   8.493  32.091   1.561
13526W        W66422  22.539  32.018   1.222
13527W        W66423  14.697  30.568   1.491
13528W        W66424  29.630  11.426   8.772
13529W        W66425   9.408   6.309   8.069
13530W        W66426  23.665  30.067   1.878
13531W        W66427  19.711  26.490   3.956
13532W        W66428   5.824   0.497   8.867
13533W        W66429  34.838  20.412   1.003
13534W        W66430  33.250  35.847   3.431
13535W        W66431  18.664  11.888   0.567
13536W        W66432   1.066   6.993   9.755
13537W        W66433  35.980   6.141   3.540
13538W        W66434  11.099   2.025   7.764
13539W        W66435  17.467  20.274   9.743
13540W        W66436   2.020  33.773   0.648
13541W        W66437  17.903   4.421  10.091
13542W        W66438  35.882  13.145   8.862
13543W        W66439   5.108  12.114   9.477
13544W        W66440   8.845  33.211   1.146
13545W        W66441   9.387  13.975   0.017
13546W        W66442  20.716  25.573   2.992
13547W        W66443   5.835   2.499   1.450
13548W        W66444  12.042  23.730   1.198
13549W        W66445  31.629   6.988   0.653
13550W        W66446  24.176  35.931   2.057
13551W        W66447  31.553   7.100   1.163
13552W        W66448  14.755  10.479   3.559
13553W        W66449   0.491  29.095   1.041
13554W        W66450  20.095  34.507   7.228
13555W        W66451  16.962  34.498   3.168
13556W        W66452  23.945  25.269   1.451
13557W        W66453  21.159  26.497   9.020
13558W        W66454  34.439  15.927   8.824
13559W        W66455  35.054  12.497   2.386
13560W        W66456  18.924   0.745   7.641
13561W        W66457  10.347  31.250   8.232
13562W        W66458   0.342  15.403   8.573
13563W        W66459  30.129  26.746   8.684
13564W        W66460   7.451  18.780   0.588
13565W        W66461  21.048  28.582   0.437
13566W        W66462   1.438  31.525   9.406
13567W        W66463  30.743   5.297   9.053
13568W        W66464   1.149  16.992   0.737
13569W        W66465  32.190   0.502   2.635
13570W        W66466  20.055  31.060   1.156
13571W        W66467   3.294  35.846   0.809
13572W        W66468  20.669   1.969   8.653
13573W        W66469  18.882  23.017   1.848
13574W        W66470  14.458  11.576   9.211
13575W        W66471  28.289  33.585   7.880
13576W        W66472  17.256  26.800   2.847
13577W        W66473   8.241   3.464   9.227
13578W        W66474  35.193  29.304   8.673
13579W        W66475  34.853  33.094   0.644
13580W        W66476  24.616  28.444   1.437
13581W        W66477  34.076  12.491   3.402
13582W        W66478  26.291  11.924   8.136
13583W        W66479   7.389  10.887   8.271
13584W        W66480  34.889  32.451   3.126
13585W        W66481  20.715   3.797  10.011
13586W        W66482  21.627  27.105   1.400
13587W        W66483   9.495   8.593   1.209
13588W        W66484  19.029  24.509  10.297
13589W        W66485  24.092  22.848   8.029
13590W        W66486  20.310   3.283   8.181
13591W        W66487  11.332  28.574   8.663
13592W        W66488  30.621   8.400   2.416
13593W        W66489   7.773  32.691  10.315
13594W        W66490  17.564  35.910  10.057
13595W        W66491  11.384  22.407   1.425
13596W        W66492  11.676   6.252   1.245
13597W        W66493  11.830  15.993   9.800
13598W        W66494  24.511   3.935   0.993
13599W        W66495   4.057  18.011   1.928
13600W        W66496  31.238  32.046   1.682
13601W        W66497  30.446  34.189   9.132
13602W        W66498  27.033  30.030   6.837
13603W        W66499   9.044  35.574  10.043
13604W        W66500  23.852   2.522   1.543
13605W        W66501  34.293  20.507   8.571
13606W        W66502   5.605  33.899   7.821
13607W        W66503  27.624  25.684   9.262
13608W        W66504  27.160   9.517   9.766
13609W        W66505  12.681  17.590   2.563
13610W        W66506  30.170  29.028   3.122
13611W        W66507  27.020  32.036   2.796
13612W        W66508  35.557  32.273   2.074
13613W        W66509   0.290  30.965   9.671
13614W        W66510  29.230  12.805   2.871
13615W        W66511  25.079   6.578   9.115
13616W        W66512  22.407  13.203   7.828
13617W        W66513  10.389   6.394   9.381
13618W        W66514  32.642  18.993   3.111
13619W        W66515  34.109  33.370   9.787
13620W        W66516  32.815  10.963   3.615
13621W        W66517   9.029  26.158   0.353
13622W        W66518   8.733  26.915   7.708
13623W        W66519   4.115  30.444   1.490
13624W        W66520  29.740  20.258   1.660
13625W        W66521   0.253  22.584   1.623
13626W        W66522  18.381  23.230   9.030
13627W        W66523  17.550   7.789  10.128
13628W        W66524  29.945  25.831   9.645
13629W        W66525   6.420  31.368   0.610
13630W        W66526  31.331  22.179   7.752
13631W        W66527  19.113  24.814   9.391
13632W        W66528   5.198  11.767  10.167
13633W        W66529   3.534   2.874   7.244
13634W        W66530  17.613  22.341   0.690
13635W        W66531  18.983  27.349   8.229
13636W        W66532   4.204   7.605  10.083
13637W        W66533   2.783  10.396   0.029
13638W        W66534  22.825  22.131   3.505
13639W        W66535  27.810  25.092   0.711
13640W        W66536  33.574  10.883  10.023
13641W        W66537  32.681  35.885   2.773
13642W        W66538   3.997   0.300   0.501
13643W        W66539  12.266  25.365   2.472
13644W        W66540  29.574  20.796   8.653
13645W        W66541  27.764   3.136   8.105
13646W        W66542   0.919  16.030   8.021
13647W        W66543  10.279   9.718   0.178
13648W        W66544   4.965  32.465   2.647
13649W        W66545  17.264  20.266   0.273
13650W        W66546  22.266   6.397   2.422
13651W        W66547  25.636  24.496   1.099
13652W        W66548  30.243  28.264   1.203
13653W        W66549  11.780  15.502   7.126
13654W        W66550  32.094   9.425   0.092
13655W        W66551  20.369   2.509  10.050
13656W        W66552  12.056  34.401   2.660
13657W        W66553  34.333   8.460   2.517
13658W        W66554  19.701  29.977   7.894
13659W        W66555  35.450  16.405   2.882
13660W        W66556  31.030  35.708   1.357
13661W        W66557   8.366   0.942   2.295
13662W        W66558  33.987  26.768   3.472
13663W        W66559   6.845  28.213   1.411
13664W        W66560  24.182  27.016  10.211
13665W        W66561  22.410   7.044   1.646
13666W        W66562  22.296  12.120   8.565
13667W        W66563   8.657  13.802   9.421
13668W        W66564  30.903  19.779   2.971
13669W        W66565   4.684  24.950   8.922
13670W        W66566  11.838  11.894   8.707
13671W        W66567  27.066  23.526   1.686
13672W        W66568  19.513   9.599   2.807
13673W        W66569  12.971  34.014   2.519
13674W        W66570  15.808  15.387   1.425
13675W        W66571   7.697  34.814   8.254
13676W        W66572  20.049   1.812   3.100
13677W        W66573  13.413  28.847   9.883
13678W        W66574  19.027   4.543   9.985
13679W        W66575   6.483  14.273   7.858
13680W        W66576  13.596   7.003   9.746
13681W        W66577   2.518  31.430   9.498
13682W        W66578  30.033  18.712   9.806
13683W        W66579  25.031  17.071   9.769
13684W        W66580  11.569  12.664   9.193
13685W        W66581  35.695  21.286   8.583
13686W        W66582  18.840  35.823   7.609
13687W        W66583  12.264  18.117   2.460
13688W        W66584  12.623   1.084   0.561
13689W        W66585  18.126   8.873   9.581
13690W        W66586  35.237  13.925   9.707
13691W        W66587  34.424  26.209   2.180
13692W        W66588  13.141  19.675   1.785
13693W        W66589   4.056   4.173  10.013
13694W        W66590   8.551   7.693   1.671
13695W        W66591  32.558  28.215   2.360
13696W        W66592   3.702  10.198   2.301
13697W        W66593  20.461  31.575   1.913
13698W        W66594   8.405  33.770   7.291
13699W        W66595  19.080  26.010   0.223
13700W        W66596  29.973  21.470   7.987
13701W        W66597  21.201   0.226   9.516
13702W        W66598   2.662  14.402   0.403
13703W        W66599   3.007  14.424   3.771
13704W        W66600  15.655  35.311   1.726
13705W        W66601   0.205  19.390   8.902
13706W        W66602  32.371   7.194   7.836
13707W        W66603   6.843   0.665   8.566
13708W        W66604  27.952  32.400   9.891
13709W        W66605  32.499  20.311   0.739
13710W        W66606   5.754   3.595   9.910
13711W        W66607  33.886  25.966   1.897
13712W        W66608  31.232  14.204   1.311
13713W        W66609  27.655  22.633   7.906
13714W        W66610  27.240   2.616   0.320
13715W        W66611   7.985  11.807   2.325
13716W        W66612  22.526   3.503   1.774
13717W        W66613   0.804  33.760   1.832
13718W        W66614   9.060  17.291   1.596
13719W        W66615  14.228  24.350   2.312
13720W        W66616   3.789   1.114   9.820
13721W        W66617  27.212  33.141   8.045
13722W        W66618   1.796   4.360  10.113
13723W        W66619  32.152   8.405   2.363
13724W        W66620  12.568  25.976   1.317
13725W        W66621   6.029  22.305   0.174
13726W        W66622  13.629  33.586   0.720
13727W        W66623  11.798  10.124   2.844
13728W        W66624  17.753  35.469   1.275
13729W        W66625  17.891  26.863   3.852
13730W        W66626  25.008  27.413   1.055
13731W        W66627  16.842  13.200   0.432
13732W        W66628  18.539  30.668   9.827
13733W        W66629  34.719   2.432   2.626
13734W        W66630  21.985  11.058   8.642
13735W        W66631  15.538   1.339   8.588
13736W        W66632  31.899  14.152   3.008
13737W        W66633  18.205  20.607   2.299
13738W        W66634   5.903   8.701   9.793
13739W        W66635  29.796  25.137   9.118
13740W        W66636  19.545  13.097   1.302
13741W        W66637   1.222   6.936   2.061
13742W        W66638  33.537  23.918   1.248
13743W        W66639  33.378   3.106   8.716
13744W        W66640  34.823  20.721   2.240
13745W        W66641   6.197  28.024   1.915
13746W        W66642  34.186  12.935   7.480
13747W        W66643   2.052  32.811   8.907
13748W        W66644   0.826   3.725   1.650
13749W        W66645  10.484   2.975   0.467
13750W        W66646  29.169   0.236   7.480
13751W        W66647  10.985  17.371   3.105
13752W        W66648  12.132  26.734  10.288
13753W        W66649   3.581  14.167   0.517
13754W        W66650  29.278  18.874   2.648
13755W        W66651  14.011  20.747   9.796
13756W        W66652  20.388  23.713   2.803
13757W        W66653  32.709  13.643   2.497
13758W        W66654  24.473   9.433   9.854
13759W        W66655   0.357  22.557   2.434
13760W        W66656  23.536   4.816  10.050
13761W        W66657  32.880  30.679   9.047
13762W        W66658   9.854  25.480   1.782
13763W        W66659  33.750  30.513   1.538
13764W        W66660  20.469   7.419   0.787
13765W        W66661   9.413   6.039   1.756
13766W        W66662  28.721   6.709   7.668
13767W        W66663  24.643  22.878   0.207
13768W        W66664  20.375  18.638   2.696
13769W        W66665   3.372  28.471   0.553
13770W        W66666  31.092   6.069   2.222
13771W        W66667  15.860  22.864   0.412
13772W        W66668  33.527  32.480   9.119
13773W        W66669  28.013  11.970   1.846
13774W        W66670  17.917  27.636   8.632
13775W        W66671  22.607  34.299   8.529
13776W        W66672  34.713  19.741   9.915
13777W        W66673  10.663  21.023   7.246
13778W        W66674   1.770  25.524   2.134
13779W        W66675  24.527  12.721   7.442
13780W        W66676  22.801   8.755   9.849
13781W        W66677  15.544   0.211   7.674
13782W        W66678  12.620  25.655   1.928
13783W        W66679  30.507  16.966   9.369
13784W        W66680  32.684   0.696   2.493
13785W        W66681  20.221  11.962   2.031
13786W        W66682  27.441   2.049   9.887
13787W        W66683   8.000  28.800   9.193
13788W        W66684  10.230   9.892   8.567
13789W        W66685  22.513  29.356   2.456
13790W        W66686  33.565  17.635   9.671
13791W        W66687   6.152  30.586   2.725
13792W        W66688   6.491  24.323   7.968
13793W        W66689  18.428  20.610   1.787
13794W        W66690  15.190  23.292   8.822
13795W        W66691  26.815  24.557   0.022
13796W        W66692  16.032  32.196   2.019
13797W        W66693  22.941   3.827   8.070
13798W        W66694  33.105  26.268   4.002
13799W        W66695  26.051  12.608   1.093
13800W        W66696  19.189  25.376  10.065
13801W        W66697  25.770  11.126   7.916
13802W        W66698  29.425   5.407   7.329
13803W        W66699  15.491  17.389  10.158
13804W        W66700  30.413   3.455   8.857
13805W        W66701  14.915  34.261   1.131
13806W        W66702  26.957  19.546   2.446
13807W        W66703  13.261  12.913   1.516
13808W        W66704  15.889  25.876   0.070
13809W        W66705  32.565  22.848   8.136
13810W        W66706  13.039  34.817  10.007
13811W        W66707   9.845  20.912   7.400
13812W        W66708   0.914  30.202   8.009
13813W        W66709   4.673  11.721   7.658
13814W        W66710  16.363  13.565   7.998
13815W        W66711  29.606  13.910   0.145
13816W        W66712   4.705  20.365  10.150
13817W        W66713  28.460   1.623   2.907
13818W        W66714  28.451  26.922   8.548
13819W        W66715  34.752  10.453   0.081
13820W        W66716  21.151  24.761   0.714
13821W        W66717  21.631  11.730   9.075
13822W        W66718  26.478  20.658   8.129
13823W        W66719  23.069  18.779   9.526
13824W        W66720  13.367  21.032  10.225
13825W        W66721  14.598  28.149   7.844
13826W        W66722   6.485  23.253   1.529
13827W        W66723  26.920  25.592   7.183
13828W        W66724  33.087   3.016   8.154
13829W        W66725  19.334   0.221   1.716
13830W        W66726   6.982  15.597   2.740
13831W        W66727  11.651  30.998   9.307
13832W        W66728  25.931  19.658   1.304
13833W        W66729  12.212   0.657   8.414
13834W        W66730  28.061  23.243   8.376
13835W        W66731   8.062   3.216   1.957
13836W        W66732  35.338   3.818   3.294
13837W        W66733  27.311  11.920   7.639
13838W        W66734  33.239   4.230   9.451
13839W        W66735  15.333   8.469   3.144
13840W        W66736   4.533   8.577   1.126
13841W        W66737  20.520  12.018   0.214
13842W        W66738   0.890   3.372   2.531
13843W        W66739  16.155   4.948   9.042
13844W        W66740  30.530  19.359   1.804
13845W        W66741  31.608  21.592   0.201
13846W        W66742   7.436  26.251   9.545
13847W        W66743  27.505  11.249   0.776
13848W        W66744  15.585   8.711   1.270
13849W        W66745  34.346  34.820   1.420
13850W        W66746  15.343  29.654   1.921
13851W        W66747  10.437  12.878  10.031
13852W        W66748  17.868  30.520   7.625
13853W        W66749  23.230  25.244   1.585
13854W        W66750  27.217  24.434  10.006
13855W        W66751  18.641  26.305   2.984
13856W        W66752  14.341  15.614   0.934
13857W        W66753  13.879  18.544   9.014
13858W        W66754  31.927  16.951   1.161
13859W        W66755  11.918  14.868   0.028
13860W        W66756   8.741   2.968   0.862
13861W        W66757   8.657  30.423   0.182
13862W        W66758  33.310  19.934   0.334
13863W        W66759  22.048  21.828   9.663
13864W        W66760  30.971  17.261   8.562
13865W        W66761  33.456   3.476   9.854
13866W        W66762   5.948  16.750   3.760
13867W        W66763   5.633  28.053   8.732
13868W        W66764  35.774   2.901   2.778
13869W        W66765   5.961  35.281   9.848
13870W        W66766  15.839  17.922   3.458
13871W        W66767  19.540  24.282   7.834
13872W        W66768  24.454  21.068   8.018
13873W        W66769  20.382  20.554   8.716
13874W        W66770  28.043   0.342  10.158
13875W        W66771  26.211  23.069   1.905
13876W        W66772   4.376  27.511   0.510
13877W        W66773  34.719  30.947   1.919
13878W        W66774  13.655   0.901   0.817
13879W        W66775   4.890  18.207   9.076
13880W        W66776  30.277   5.883   8.484
13881W        W66777   9.480   6.179   7.446
13882W        W66778   1.691  20.613   1.532
13883W        W66779  26.824   8.822   8.245
13884W        W66780  27.508   9.856   8.789
13885W        W66781  34.591  33.787   9.925
13886W        W66782   6.235  24.099   7.101
13887W        W66783  30.051  28.037   1.737
13888W        W66784  28.411  28.139   3.418
13889W        W66785   2.338   8.972   3.708
13890W        W66786  11.127  22.715  10.279
13891W        W66787  23.177  18.377   1.944
13892W        W66788  35.721  32.046   3.392
13893W        W66789   1.467  14.437   8.101
13894W        W66790  17.814  16.856   2.792
13895W        W66791   0.420   6.284   0.533
13896W        W66792  13.362  20.368   3.677
13897W        W66793  12.997  14.261   9.548
13898W        W66794   8.355  24.639  10.063
13899W        W66795  23.006  17.031   9.484
13900W        W66796  17.406  26.934   7.954
13901W        W66797   6.295   9.557   8.595
13902W        W66798  18.886  24.603   3.248
13903W        W66799   7.938  11.751   2.921
13904W        W66800  26.796  21.747  10.111
13905W        W66801  33.374  30.251   7.535
13906W        W66802  14.220   2.839   9.523
13907W        W66803   4.283   0.700   2.478
13908W        W66804   4.141  12.470   0.188
13909W        W66805  33.601   4.683   1.432
13910W        W66806   4.339  12.601   1.015
13911W        W66807   8.227  23.609   2.223
13912W        W66808  29.783  30.738   0.674
13913W        W66809  11.306  21.424   2.357
13914W        W66810  33.601  28.796   2.380
13915W        W66811  16.277  26.342   0.185
13916W        W66812  31.438   1.622   7.992
13917W        W66813  26.407  29.261   2.470
13918W        W66814  26.388  16.523   8.594
13919W        W66815  21.129  29.441   2.932
13920W        W66816  21.686  27.775   2.058
13921W        W66817  30.309  20.820   2.894
13922W        W66818  20.039  19.037   0.396
13923W        W66819  11.660   4.346   2.441
13924W        W66820  32.774   2.922   0.711
13925W        W66821  10.986  31.899   8.709
13926W        W66822   8.841  17.372   0.103
13927W        W66823  13.959   5.894   9.851
13928W        W66824  24.509  14.590   1.337
13929W        W66825  27.941  18.061  10.245
13930W        W66826  17.432   4.920   8.363
13931W        W66827  10.061  17.674  10.217
13932W        W66828  26.566  17.887   8.153
13933W        W66829   4.933  24.611   7.439
13934W        W66830  20.718   1.034   8.561
13935W        W66831  11.871  18.639   8.806
13936W        W66832   0.411  17.951   8.397
13937W        W66833  26.420  27.272   2.805
13938W        W66834   2.634  16.870   9.164
13939W        W66835  31.234  13.220   8.846
13940W        W66836   2.647  25.672   9.199
13941W        W66837   6.878  18.932  10.281
13942W        W66838  32.642  26.270  10.132
13943W        W66839   2.296  20.235   8.633
13944W        W66840   5.288  13.477   0.913
13945W        W66841  24.855  21.341   1.264
13946W        W66842  29.481  13.303   3.716
13947W        W66843   2.519   0.659   1.541
13948W        W66844  30.721   0.186   9.493
13949W        W66845  28.562  12.863   9.199
13950W        W66846  15.101  20.154   8.148
13951W        W66847   1.723  12.458   1.571
13952W        W66848  22.301  33.192   9.944
13953W        W66849  19.690  19.075   2.142
13954W        W66850  12.142  15.235   9.482
13955W        W66851   7.614  14.942   3.239
13956W        W66852  21.607  17.836   9.994
13957W        W66853   0.591  24.230   0.954
13958W        W66854   7.447  13.184   2.906
13959W        W66855   5.230   4.765   1.581
13960W        W66856  14.792   8.732   9.409
13961W        W66857   8.057  13.343   0.277
13962W        W66858  32.281  17.551   0.165
13963W        W66859  10.305   3.745   9.039
13964W        W66860  27.256   4.423   2.748
13965W        W66861  22.492  11.188   9.464
13966W        W66862  29.948   0.387   8.199
13967W        W66863  27.471  27.554   8.785
13968W        W66864  35.001  35.881   8.916
13969W        W66865  18.119   4.028   9.830
13970W        W66866   2.383  15.383   2.937
13971W        W66867  22.446  27.353   1.938
13972W        W66868  12.117   3.070   0.726
13973W        W66869  15.959   0.956   8.932
13974W        W66870  28.051  14.951   1.453
13975W        W66871  19.574   2.492   0.415
13976W        W66872  22.249  25.431   1.558
13977W        W66873  24.888  12.720   2.714
13978W        W66874   2.641   9.349   8.009
13979W        W66875  28.933  19.717   6.972
13980W        W66876  35.516   6.758   2.025
13981W        W66877  16.748  17.095   8.742
13982W        W66878   8.272  15.520   1.747
13983W        W66879  35.137  11.901  10.280
13984W        W66880  34.064  24.472   2.695
13985W        W66881  32.197  13.792   7.807
13986W        W66882  29.255  35.721   1.793
13987W        W66883  21.523  24.439   3.059
13988W        W66884   7.832  10.546   0.941
13989W        W66885   1.864  27.238   0.254
13990W        W66886  14.131  32.015   0.391
13991W        W66887  21.166  11.243   7.919
13992W        W66888   5.229   1.224   1.432
13993W        W66889  28.610  25.504   7.915
13994W        W66890   2.000  25.130   9.514
13995W        W66891  27.873  22.360  10.163
13996W        W66892  15.982  27.985   3.296
13997W        W66893  10.849  30.749  10.256
13998W        W66894  31.633  12.201   9.949
13999W        W66895  28.932   4.179   2.358
14000W        W66896   7.842  13.927   0.927
14001W        W66897   5.313  13.739   2.731
14002W        W66898  11.949  23.397   1.611
14003W        W66899  13.681  33.683   3.990
14004W        W66900  10.179   4.712  10.007
14005W        W66901   0.446  34.437   2.422
14006W        W66902  24.859   5.640   3.053
14007W        W66903   1.311   2.751   0.217
14008W        W66904  34.212  13.242   3.360
14009W        W66905  12.439  25.816   3.331
14010W        W66906  13.989  33.907   9.018
14011W        W66907  25.938  24.529   2.538
14012W        W66908  24.761   9.351  10.242
14013W        W66909   7.654  34.951   9.692
14014W        W66910  12.213  35.501   0.585
14015W        W66911   7.486   5.109   1.090
14016W        W66912   6.537  19.820   0.552
14017W        W66913  22.448  19.712   8.352
14018W        W66914   2.678   6.783   9.428
14019W        W66915   0.798   2.184   0.091
14020W        W66916   8.806  28.574   7.412
14021W        W66917   7.532  22.092   7.738
14022W        W66918  23.615  27.946   8.075
14023W        W66919  28.033  28.999   2.055
14024W        W66920   7.386  31.519   9.001
14025W        W66921   9.028  15.174  10.150
14026W        W66922  34.335  15.681   2.958
14027W        W66923  33.974  10.057   9.828
14028W        W66924  29.150  23.357   2.593
14029W        W66925  31.742  11.344   8.854
14030W        W66926  23.945  25.511   9.946
14031W        W66927   5.490  32.042   2.576
14032W        W66928  17.961   5.164   3.707
14033W        W66929  14.775  33.430   9.287
14034W        W66930  27.413   2.043   9.401
14035W        W66931  25.969   6.683  10.105
14036W        W66932  28.570  14.251   8.175
14037W        W66933   5.435  35.476   1.378
14038W        W66934  10.170   1.659   1.151
14039W        W66935  25.145  15.577   2.669
14040W        W66936   8.129  26.862   7.463
14041W        W66937   1.038   0.839   7.425
14042W        W66938   2.524   5.997   8.779
14043W        W66939  23.737   1.715   9.418
14044W        W66940  29.304  22.153   8.392
14045W        W66941  13.094  16.281  10.172
14046W        W66942  31.863  35.037   9.044
14047W        W66943  16.896  19.535   2.845
14048W        W66944   7.777  26.432  10.003
14049W        W66945  15.445  24.666   8.899
14050W        W66946  27.889  22.363   2.634
14051W        W66947  33.874  32.313   9.526
14052W        W66948  15.021  31.827  10.095
14053W        W66949   7.635  12.086   2.141
14054W        W66950  19.557  25.034  10.007
14055W        W66951  26.273  24.772   0.231
14056W        W66952  31.079  17.881   2.009
14057W        W66953  22.834   3.727   8.541
14058W        W66954  23.115  10.994   7.965
14059W        W66955  24.475   2.552   9.249
14060W        W66956  11.316  11.563   3.755
14061W        W66957  35.079  11.375  10.308
14062W        W66958  21.692  31.131   1.362
14063W        W66959  20.821  35.149   9.928
14064W        W66960  14.992  33.098   2.164
14065W        W66961  13.537  17.464   8.196
14066W        W66962  31.503  28.284   2.159
14067W        W66963   2.457  30.590   8.208
14068W        W66964  31.333  34.579   1.043
14069W        W66965   3.514  15.453   2.452
14070W        W66966   1.669   2.715   8.497
14071W        W66967   4.180   2.743  10.161
14072W        W66968   1.151  12.048   9.262
14073W        W66969  32.460   5.297   3.505
14074W        W66970   4.028  13.247   0.228
14075W        W66971  23.698  23.279   1.411
14076W        W66972  32.476   3.171   8.826
14077W        W66973  33.882   0.725   6.864
14078W        W66974  32.528  18.084   7.578
14079W        W66975  24.121  16.277   0.995
14080W        W66976  13.304   6.639   1.233
14081W        W66977  21.324  21.114   2.019
14082W        W66978   4.279  19.286   3.524
14083W        W66979  31.397   4.780   2.332
14084W        W66980   3.003  23.278   2.023
14085W        W66981  20.252  30.809   1.527
14086W        W66982   4.709  29.930   7.369
14087W        W66983  16.914  24.550   8.769
14088W        W66984  11.461  19.196   8.992
14089W        W66985   0.920  25.703  10.080
14090W        W66986  33.587  26.585   8.983
14091W        W66987  16.972  28.241   8.802
14092W        W66988   9.354  23.966   2.540
14093W        W66989   8.105  11.407   2.578
14094W        W66990  14.617  20.006   9.017
14095W        W66991   3.724   6.395   9.478
14096W        W66992  24.837  12.697   8.913
14097W        W66993  18.858   4.312   2.965
14098W        W66994  33.869   8.585   7.865
14099W        W66995  27.012  32.078   9.962
14100W        W66996  10.505  21.824   9.942
14101W        W66997  22.420  10.150   1.557
14102W        W66998  22.019  32.886   8.813
14103W        W66999  17.305  14.136   1.613
14104W        W67000  32.542  23.837   2.589
14105W        W67001   3.701   2.158   8.965
14106W        W67002  12.240  12.698   0.584
14107W        W67003   2.122  21.866   3.230
14108W        W67004   3.797  33.559   2.586
14109W        W67005  24.684  30.596   9.850
14110W        W67006  15.821  23.532   2.372
14111W        W67007  18.339  19.300   9.911
14112W        W67008  11.909  27.167   0.752
14113W        W67009  30.926   7.312   1.416
14114W        W67010  24.824  17.824   0.419
14115W        W67011  10.182  30.378   0.334
14116W        W67012   1.078  18.229   3.893
14117W        W67013  13.374  32.683   3.972
14118W        W67014  12.112  34.562   3.130
14119W        W67015  19.198  31.076   7.310
14120W        W67016   8.470   9.127   8.264
14121W        W67017  30.310   3.723   1.522
14122W        W67018  31.099   5.965   8.441
14123W        W67019  13.716  20.076   7.779
14124W        W67020   3.694  19.523   0.917
14125W        W67021   8.879  12.882   9.948
14126W        W67022   1.910  33.461   3.712
14127W        W67023  16.979  19.037   9.813
14128W        W67024  13.828   0.583   1.245
14129W        W67025   1.482  13.699   3.240
14130W        W67026  24.867  29.507   7.945
14131W        W67027  27.530   5.305   8.059
14132W        W67028  28.778  32.554   3.232
14133W        W67029  22.299  13.847   3.374
14134W        W67030   4.843  20.391   0.664
14135W        W67031  35.572  11.096   1.008
14136W        W67032  11.648  34.585   9.292
14137W        W67033  23.628  27.200   0.659
14138W        W67034  19.785  14.441   2.335
14139W        W67035  33.767   9.314   7.936
14140W        W67036   3.061  18.343   1.975
14141W        W67037  35.028  18.102   1.349
14142W        W67038  26.048  31.927   1.999
14143W        W67039  13.981  24.375   7.571
14144W        W67040  17.927   0.851   0.864
14145W        W67041  33.669  20.600   3.776
14146W        W67042  16.682   5.454   9.131
14147W        W67043   6.445  16.846   2.704
14148W        W67044  24.156   1.557   1.717
14149W        W67045  31.376  11.265   7.401
14150W        W67046  13.922   8.520  10.131
14151W        W67047  11.217  22.924   8.612
14152W        W67048  10.577  29.467   9.769
14153W        W67049  13.419  29.983   8.904
14154W        W67050  28.039  26.989   1.115
14155W        W67051  23.574  24.435   9.952
14156W        W67052  15.024  30.122   1.874
14157W        W67053   2.908   5.041   1.976
14158W        W67054   8.036  17.252   7.843
14159W        W67055  22.422  27.854   0.908
14160W        W67056  25.222   8.257  10.307
14161W        W67057  25.032  30.804   3.027
14162W        W67058  20.676   9.017   9.146
14163W        W67059   7.023   7.713   8.385
14164W        W67060  12.862  29.802   1.328
14165W        W67061  31.309   3.989   9.261
14166W        W67062  31.893  33.155  10.111
14167W        W67063  21.435  23.445   8.581
14168W        W67064   3.453  32.482   9.384
14169W        W67065  18.859  26.298   2.413
14170W        W67066   1.132  20.180   1.001
14171W        W67067  11.373  27.593   8.038
14172W        W67068   3.858  21.976   1.174
14173W        W67069   6.110   3.572   1.664
14174W        W67070  23.197  20.411   1.389
14175W        W67071   9.657  11.486   1.677
14176W        W67072  11.419  17.786   7.197
14177W        W67073   4.313  12.694   7.452
14178W        W67074   0.276  20.924  10.066
14179W        W67075   5.539   3.477   9.299
14180W        W67076  18.662  27.304   2.108
14181W        W67077   7.825   0.255   2.793
14182W        W67078   7.681   3.874   1.428
14183W        W67079  11.205  30.913   3.244
14184W        W67080  21.194  28.287   1.871
14185W        W67081  27.026  14.567   1.513
14186W        W67082   1.806  28.619   9.261
14187W        W67083  35.592  17.938   8.950
14188W        W67084  26.986  11.938   0.347
14189W        W67085  31.945   5.725   8.884
14190W        W67086   2.765  31.007   9.240
14191W        W67087   0.686  35.281   0.310
14192W        W67088  22.225  10.241   4.155
14193W        W67089  18.755  12.395   2.898
14194W        W67090  21.474   4.747   0.632
14195W        W67091  23.276   4.594   1.919
14196W        W67092  33.401  26.677   1.912
14197W        W67093  27.558   5.530   0.464
14198W        W67094  14.105  21.974   8.034
14199W        W67095   7.032   6.156   8.159
14200W        W67096   9.975  28.444   1.947
14201W        W67097  35.949  20.363   8.532
14202W        W67098  12.781  18.568   8.541
14203W        W67099   6.928   4.053   2.185
14204W        W67100  16.078  15.681   8.201
14205W        W67101  27.714  19.893   2.113
14206W        W67102  15.681  17.268   1.858
14207W        W67103  24.908  18.715   2.677
14208W        W67104   1.534  19.761   1.422
14209W        W67105   2.567  27.362   9.198
14210W        W67106  28.268  11.423   3.382
14211W        W67107  13.035   9.961   0.021
14212W        W67108   3.410  22.742   2.625
14213W        W67109  10.076  23.190   1.978
14214W        W67110  32.228   8.767   1.706
14215W        W67111  12.744  19.535   2.684
14216W        W67112  18.422   1.828   1.804
14217W        W67113  23.376  22.104   0.774
14218W        W67114  14.252   9.060   2.309
14219W        W67115   2.887  19.791   9.354
14220W        W67116   7.698  11.740   9.614
14221W        W67117  10.185  19.573   7.469
14222W        W67118  19.455  29.748   2.853
14223W        W67119   9.114  18.329   9.059
14224W        W67120  15.979  31.206   9.916
14225W        W67121  23.053  11.968   0.616
14226W        W67122  32.115  29.209   8.754
14227W        W67123  27.484   7.906  10.129
14228W        W67124  14.615  32.384   0.321
14229W        W67125   2.621   2.018   9.160
14230W        W67126  33.684  14.427   9.024
14231W        W67127  16.322  10.535   2.262
14232W        W67128  21.303  28.432   8.685
14233W        W67129  30.889  30.926   1.267
14234W        W67130  17.077   8.084   1.418
14235W        W67131  21.358  30.160   1.926
14236W        W67132  31.903   6.918   9.786
14237W        W67133  29.522  25.861   2.544
14238W        W67134  22.076  11.311   9.747
14239W        W67135   9.314  12.784   0.522
14240W        W67136  11.644  32.527   1.439
14241W        W67137   1.066  21.556   9.081
14242W        W67138  11.979  13.004   0.062
14243W        W67139  14.795  23.770   8.224
14244W        W67140  28.254  25.133   2.464
14245W        W67141  23.711  32.624   8.819
14246W        W67142   2.294   7.705   0.809
14247W        W67143   5.822  13.038   1.503
14248W        W67144  26.769   6.232   0.935
14249W        W67145  15.573  21.048   1.312
14250W        W67146   7.321  22.438   8.058
14251W        W67147   7.611  28.760   2.659
14252W        W67148  17.237  10.875   9.546
14253W        W67149   7.286   2.029   9.184
14254W        W67150   9.420  32.509   8.700
14255W        W67151  10.768  33.655   0.936
14256W        W67152  17.245  22.440   0.100
14257W        W67153  32.827  13.742   8.441
14258W        W67154   4.520  33.997  10.022
14259W        W67155  23.844  17.723   2.909
14260W        W67156   4.301  12.493   8.452
14261W        W67157  32.402  30.224   9.525
14262W        W67158  10.088  33.177   8.212
14263W        W67159  27.375  31.877   1.005
14264W        W67160  35.625   0.176   1.177
14265W        W67161   9.363  29.898   1.292
14266W        W67162   9.615  22.028   8.821
14267W        W67163  20.009  33.207   0.205
14268W        W67164  21.268  23.818   2.282
14269W        W67165   2.865   7.389   1.912
14270W        W67166  22.881  24.499   0.899
14271W        W67167  13.558  19.542   8.559
14272W        W67168  30.523   7.309   9.937
14273W        W67169  29.467   1.983   9.823
14274W        W67170  14.045  23.161   9.907
14275W        W67171   2.471  19.525   9.263
14276W        W67172   3.490  18.079   1.218
14277W        W67173  16.517  34.158   1.909
14278W        W67174  34.892  11.996   2.351
14279W        W67175  17.080   5.771   8.395
14280W        W67176   4.572  28.189   1.395
14281W        W67177   2.915   5.457   0.063
14282W        W67178  24.794  29.915   0.114
14283W        W67179   6.565  33.221   8.035
14284W        W67180  33.099   1.915   7.922
14285W        W67181   5.089   5.764   1.752
14286W        W67182  30.276  16.306   8.882
14287W        W67183  17.772   9.976   0.816
14288W        W67184  33.058  28.762   4.119
14289W        W67185  10.044  17.120   0.674
14290W        W67186   4.140   3.325   8.924
14291W        W67187  23.203  22.908   3.638
14292W        W67188   8.432  13.003   9.232
14293W        W67189  10.102  16.600   0.664
14294W        W67190  13.430  24.515   9.854
14295W        W67191   8.033  18.493   2.174
14296W        W67192  30.401  32.532   0.700
14297W        W67193  14.735  24.070   1.477
14298W        W67194  12.695  35.986   1.456
14299W        W67195  32.293  24.912   3.653
14300W        W67196   2.939  10.335   9.759
14301W        W67197  11.348  18.027   1.000
14302W        W67198   2.486  24.594  10.159
14303W        W67199   1.564   2.788   9.239
14304W        W67200  34.763   1.276   9.902
14305W        W67201  25.371  25.119   9.512
14306W        W67202   5.871  13.367   2.879
14307W        W67203  18.396  31.706   6.803
14308W        W67204   2.184   7.709   9.813
14309W        W67205   6.274  23.273   0.947
14310W        W67206  19.626  15.424   2.586
14311W        W67207   9.650  32.999   9.556
14312W        W67208  16.854  35.753   8.075
14313W        W67209  15.042  21.028   1.684
14314W        W67210   7.049  35.106   2.932
14315W        W67211  11.817   3.261   2.213
14316W        W67212  20.680   9.986   0.125
14317W        W67213  20.397  23.485   8.606
14318W        W67214  24.775  15.074   1.533
14319W        W67215  26.942  14.764   8.468
14320W        W67216  29.800  29.193   2.832
14321W        W67217  24.671  19.911   0.933
14322W        W67218  31.043  16.092   3.343
14323W        W67219  23.063   8.814   3.263
14324W        W67220   1.506  19.346   3.222
14325W        W67221  32.579  25.682   8.257
14326W        W67222  21.180   4.110   2.047
14327W        W67223  25.647  30.106   2.835
14328W        W67224  14.868   2.718   8.179
14329W        W67225  30.064   4.813   1.527
14330W        W67226  28.650  31.097  10.046
14331W        W67227  28.115  23.624   2.846
14332W        W67228  13.200  17.228   0.105
14333W        W67229  35.711  16.919   7.737
14334W        W67230  25.764  10.667   0.891
14335W        W67231  33.853  18.969   0.393
14336W        W67232  21.555   2.814   7.172
14337W        W67233   9.943  22.781   0.162
14338W        W67234   2.366  20.447   1.589
14339W        W67235  32.176  30.849   3.204
14340W        W67236  23.652  17.923   8.496
14341W        W67237   3.032   2.872   9.038
14342W        W67238   3.246  29.777   0.462
14343W        W67239  14.449  24.940   0.322
14344W        W67240  16.950  14.977   9.250
14345W        W67241  23.837  24.041   3.414
14346W        W67242  15.195  10.067   1.837
14347W        W67243  33.369  12.246   1.021
14348W        W67244   6.853   3.205   8.521
14349W        W67245  20.584   3.356   0.022
14350W        W67246  28.752  34.940   9.846
14351W        W67247  15.514  27.617   9.143
14352W        W67248   0.932  12.821   3.489
14353W        W67249  27.584  22.051   1.648
14354W        W67250  31.637  16.303   0.165
14355W        W67251  22.385  15.589   9.475
14356W        W67252  30.859  22.356   1.909
14357W        W67253  14.777  24.948   2.308
14358W        W67254  11.787  24.861   8.395
14359W        W67255  12.512   0.868   9.203
14360W        W67256  28.800  10.231   2.926
14361W        W67257   8.145   8.519   2.543
14362W        W67258  31.853  19.609   7.468
14363W        W67259  33.020  30.919   0.253
14364W        W67260  15.438  33.864   9.115
14365W        W67261  34.004  17.281   1.316
14366W        W67262  29.791   0.420   3.231
14367W        W67263  27.968  16.314   2.534
14368W        W67264  15.031  27.215   9.418
14369W        W67265   9.102   4.255   1.746
14370W        W67266   6.989  34.848   8.530
14371W        W67267   5.110  31.024   0.115
14372W        W67268  19.376   4.236   3.716
14373W        W67269   7.653   3.418   1.633
14374W        W67270  17.359  29.434   1.485
14375W        W67271  12.671   3.986   9.072
14376W        W67272   1.147  11.117   2.022
14377W        W67273   5.749   7.748   1.407
14378W        W67274  14.244  27.317   8.156
14379W        W67275  18.477   9.954   3.381
14380W        W67276  28.359  17.704   9.697
14381W        W67277  21.607  31.669   8.729
14382W        W67278  31.510  11.529   0.139
14383W        W67279  21.146  18.360   1.573
14384W        W67280   0.528  12.636   8.139
14385W        W67281  29.563  25.019   0.218
14386W        W67282  23.015   1.535   9.294
14387W        W67283   9.396  35.626   9.633
14388W        W67284   6.688   5.917   8.907
14389W        W67285  33.842  22.544   8.575
14390W        W67286  31.983  21.356   7.872
14391W        W67287   0.283  23.252  10.285
14392W        W67288  11.501  14.728  10.148
14393W        W67289   9.702   0.010   9.926
14394W        W67290  17.698  24.851   0.704
14395W        W67291   0.997  25.089   9.015
14396W        W67292  10.822  10.116   7.515
14397W        W67293  25.887   4.354   8.459
14398W        W67294   4.362  10.800   3.204
14399W        W67295  32.342  22.892   0.496
14400W        W67296   3.973  16.229   8.803
14401W        W67297  31.271   9.762   9.984
14402W        W67298  15.908  17.158   9.608
14403W        W67299  34.316  34.185   2.337
14404W        W67300  17.551  16.689   8.593
14405W        W67301  20.714   9.845   8.812
14406W        W67302  11.280  26.683   2.982
14407W        W67303  16.561  17.969   7.801
14408W        W67304  21.355  11.205   1.781
14409W        W67305  27.927  21.497   1.301
14410W        W67306  34.887  21.142   9.214
14411W        W67307  32.267  10.920   3.636
14412W        W67308  14.962  15.495   0.983
14413W        W67309  11.646   6.351   7.980
14414W        W67310  29.346  28.197   8.050
14415W        W67311  34.394  17.672   1.957
14416W        W67312  29.773   3.795   0.332
14417W        W67313  24.609   8.134   0.127
14418W        W67314  25.422  32.986   0.195
14419W        W67315  11.245   8.026   3.348
14420W        W67316   5.950  26.452   0.758
14421W        W67317  34.980   4.369   3.802
14422W        W67318  31.835   8.152   3.496
14423W        W67319  20.143   1.303   1.113
14424W        W67320  23.603   3.426   9.960
14425W        W67321  15.434   4.509   0.174
14426W        W67322  30.016   0.363   9.123
14427W        W67323  16.695  25.843   9.330
14428W        W67324  14.542  21.543   9.439
14429W        W67325  32.114   9.970   2.274
14430W        W67326  31.715   2.480   8.054
14431W        W67327   5.880   3.123   0.551
14432W        W67328  15.932  24.893   9.578
14433W        W67329   0.725  31.689   8.550
14434W        W67330  22.386   5.426   8.467
14435W        W67331   6.849  17.065   0.419
14436W        W67332  34.583   6.341   9.026
14437W        W67333  21.675   7.884  10.028
14438W        W67334   6.088  32.411  10.202
14439W        W67335   7.316  30.131   9.347
14440W        W67336  32.725  10.173   9.469
14441W        W67337   1.247  13.662   2.368
14442W        W67338  23.604  10.704   9.151
14443W        W67339  30.561  18.459   2.812
14444W        W67340  35.248  11.645   2.403
14445W        W67341   6.402  30.562   3.134
14446W        W67342  31.420  26.253   1.109
14447W        W67343   3.365   9.371   0.544
14448W        W67344  24.259  35.435   1.696
14449W        W67345  10.128  19.335   1.048
14450W        W67346  17.483  11.166   2.414
14451W        W67347  20.597  30.733   8.703
14452W        W67348  30.054   7.745   2.089
14453W        W67349  29.092   3.798   1.938
14454W        W67350  17.206  30.184  10.060
14455W        W67351   5.294   3.349   9.712
14456W        W67352   5.621   0.249   9.714
14457W        W67353  10.389  22.167   9.234
14458W        W67354   1.823  27.671   1.245
14459W        W67355  33.557  28.545   3.239
14460W        W67356  30.762  12.692   1.907
14461W        W67357  23.398  22.490   7.309
14462W        W67358  17.505  20.680   9.471
14463W        W67359   6.547  34.894   0.050
14464W        W67360  36.014   3.459  10.030
14465W        W67361   7.115  33.494   0.443
14466W        W67362  20.503   5.539   3.193
14467W        W67363  18.162  28.269   9.262
14468W        W67364  26.642  11.580   2.427
14469W        W67365  22.857   5.913   9.996
14470W        W67366  22.918  21.308   7.002
14471W        W67367  34.175  12.090   6.947
14472W        W67368  15.469  17.955   0.697
14473W        W67369  19.292  18.116   8.669
14474W        W67370  18.846  18.398   2.380
14475W        W67371  27.396  27.395   2.358
14476W        W67372  29.891   2.835   0.427
14477W        W67373  11.044   4.383   1.827
14478W        W67374  19.809   5.671   1.395
14479W        W67375  33.818  14.072   3.576
14480W        W67376  24.653  28.547   0.942
14481W        W67377   1.960   6.758   8.774
14482W        W67378  26.970   0.216   8.152
14483W        W67379  24.528  25.240   3.143
14484W        W67380  29.390  30.987   1.883
14485W        W67381  23.155  26.911   2.350
14486W        W67382   3.044  35.115  10.265
14487W        W67383  28.110  18.608   9.411
14488W        W67384  25.662   3.883   2.450
14489W        W67385  15.109  33.399   2.939
14490W        W67386  19.050   0.311   3.133
14491W        W67387  13.364  28.840   9.322
14492W        W67388  15.811  33.267   2.681
14493W        W67389   0.506  33.079   0.406
14494W        W67390  18.405  19.212   2.012
14495W        W67391  34.095   2.640   0.064
14496W        W67392  19.081   5.088   9.096
14497W        W67393  28.465  17.294  10.078
14498W        W67394  18.782  34.480   0.897
14499W        W67395  34.416   6.587   1.129
14500W        W67396  29.814  26.691   9.180
14501W        W67397  25.555  22.653   9.794
14502W        W67398  29.177  26.632   0.556
14503W        W67399   3.711  23.618   9.436
14504W        W67400  14.397   5.252   2.901
14505W        W67401  22.135  26.940   8.141
14506W        W67402  20.661  15.582   3.600
14507W        W67403  14.085   4.578   1.421
14508W        W67404  23.788   7.069   0.065
14509W        W67405  15.578  14.006  10.163
14510W        W67406  19.952  25.532   2.666
14511W        W67407  32.486  11.339   3.575
14512W        W67408  19.303   5.961   2.311
14513W        W67409  30.925   7.049   3.691
14514W        W67410  27.812  32.714   7.869
14515W        W67411   0.653   8.108   8.347
14516W        W67412  34.867   0.950   1.667
14517W        W67413  34.309   9.300   0.334
14518W        W67414   7.894  30.396   8.247
14519W        W67415   6.735  11.367   9.488
14520W        W67416  33.350  30.617   0.699
14521W        W67417  31.878  22.652  10.252
14522W        W67418  30.534   7.719   1.223
14523W        W67419  10.049  28.821   7.468
14524W        W67420  24.395  25.175   3.683
14525W        W67421   2.290  24.704   9.508
14526W        W67422  35.562  22.313   9.273
14527W        W67423  34.916  25.096   8.566
14528W        W67424  33.118   7.300   9.253
14529W        W67425   1.647  17.552   2.323
14530W        W67426  25.490  35.152   3.158
14531W        W67427  10.955   3.127   1.267
14532W        W67428   6.624   7.507   1.681
14533W        W67429  14.641  17.030   1.970
14534W        W67430   6.476   6.282   9.832
14535W        W67431  12.107  28.296   0.418
14536W        W67432  32.180  28.172   1.952
14537W        W67433  31.617  21.103   7.665
14538W        W67434  21.758  16.301   9.750
14539W        W67435  24.929  10.062   3.679
14540W        W67436   8.388   4.710   1.188
14541W        W67437   4.893  13.694   2.357
14542W        W67438  16.111  25.489   7.990
14543W        W67439  34.500  20.626   7.980
14544W        W67440  31.383  35.529   9.656
14545W        W67441   9.018   5.492   1.345
14546W        W67442  35.776  25.627   8.531
14547W        W67443   8.577  24.500   0.147
14548W        W67444  15.307  31.650   0.140
14549W        W67445  32.211  22.258   8.209
14550W        W67446  17.995  30.346   9.984
14551W        W67447   2.580   7.067   0.228
14552W        W67448  27.178  25.834   7.492
14553W        W67449   7.162  27.881   2.612
14554W        W67450  22.154  12.052   1.897
14555W        W67451   1.891   7.445   2.374
14556W        W67452  16.135   1.909   1.110
14557W        W67453  12.153  14.562   1.471
14558W        W67454  12.706  35.623  10.253
14559W        W67455   5.351   1.527   2.358
14560W        W67456  16.175   0.977   9.971
14561W        W67457   1.854  34.455   9.823
14562W        W67458  20.289  35.096   3.188
14563W        W67459  29.069  12.831   0.501
14564W        W67460  31.211  14.012   0.798
14565W        W67461  18.147  22.584   9.734
14566W        W67462  11.374   5.377   8.805
14567W        W67463  10.378  31.112   2.726
14568W        W67464  27.713  11.854   9.116
14569W        W67465  27.841  20.744   9.196
14570W        W67466  32.352   1.924   1.709
14571W        W67467  23.849   9.205   2.230
14572W        W67468   7.852   9.355   2.541
14573W        W67469   4.026  32.402   0.537
14574W        W67470  17.657  10.844   8.449
14575W        W67471  20.375  25.576   8.472
14576W        W67472  33.750  30.377   2.018
14577W        W67473  24.073  32.583   2.652
14578W        W67474  24.255  29.820   9.368
14579W        W67475  33.350  10.593   1.785
14580W        W67476   9.064   7.117   1.293
14581W        W67477  35.086   0.285   7.563
14582W        W67478   5.650   9.915   8.532
14583W        W67479  26.573  27.012   0.797
14584W        W67480  15.088  19.180   9.739
14585W        W67481  18.554  10.345   8.693
14586W        W67482   9.755  20.195   8.495
14587W        W67483  30.127  18.325   0.914
14588W        W67484   0.818  10.258   0.624
14589W        W67485  10.837  25.003   2.484
14590W        W67486   1.822  13.322   9.627
14591W        W67487  12.937  33.595   1.972
14592W        W67488  19.877  23.038   3.219
14593W        W67489  10.715  26.074   2.006
14594W        W67490  13.548   6.253   1.873
14595W        W67491  32.816  31.910  10.157
14596W        W67492   5.087   6.681   7.920
14597W        W67493  30.362   7.567   0.751
14598W        W67494   7.533  23.433  10.324
14599W        W67495  29.315   3.736   2.896
14600W        W67496  19.870   8.476   8.310
14601W        W67497  28.093  24.312   0.951
14602W        W67498  23.688  27.950  10.243
14603W        W67499  35.181  19.058   1.589
14604W        W67500  11.270  24.951   8.497
14605W        W67501  29.524  16.289   1.894
14606W        W67502  32.699  24.299   2.399
14607W        W67503   5.066   7.080   1.847
14608W        W67504  16.573  30.276   1.954
14609W        W67505  24.586   2.710   0.484
14610W        W67506   3.376  31.531   1.242
14611W        W67507   3.265  33.864   3.121
14612W        W67508  12.267  30.754   9.354
14613W        W67509   1.475  31.814   2.339
14614W        W67510  24.307  17.570   2.833
14615W        W67511  19.017  30.289   0.278
14616W        W67512  12.925   2.040   0.472
14617W        W67513   3.446  13.192   7.971
14618W        W67514   7.214  11.965   8.057
14619W        W67515  30.169  25.165   9.483
14620W        W67516  21.733   0.946   1.019
14621W        W67517  14.423  24.571  10.266
14622W        W67518  12.461  23.860   0.933
14623W        W67519   5.739  26.616   8.055
14624W        W67520  10.503  19.510   1.526
14625W        W67521  11.688  29.407   2.906
14626W        W67522  22.144   9.179   2.226
14627W        W67523  15.690  20.410   1.737
14628W        W67524  34.835   0.083   2.066
14629W        W67525  32.868  12.618   9.841
14630W        W67526   1.652  29.643   2.899
14631W        W67527  27.722  30.373   1.382
14632W        W67528  35.269  27.167   2.485
14633W        W67529  28.048  11.586   1.526
14634W        W67530  18.505  26.573   8.478
14635W        W67531  10.714  34.878   2.396
14636W        W67532  19.013  23.610   1.641
14637W        W67533  16.143  29.296   8.981
14638W        W67534   0.722  26.786   0.315
14639W        W67535  24.338  16.942   0.373
14640W        W67536   4.028  11.860   7.349
14641W        W67537  21.690  14.815   1.880
14642W        W67538   9.161   2.479   8.275
14643W        W67539  26.782  23.178   2.502
14644W        W67540  28.636  16.475   0.047
14645W        W67541   9.088  28.506   9.947
14646W        W67542  15.759   1.388   9.079
14647W        W67543  28.754  17.817   1.970
14648W        W67544  32.973  17.492   2.946
14649W        W67545  29.397  17.400   7.477
14650W        W67546  20.834  17.255   1.789
14651W        W67547  11.708  14.991   8.406
14652W        W67548   0.997  10.743   7.561
14653W        W67549   0.841  15.555   0.627
14654W        W67550   3.107  28.520   7.662
14655W        W67551  32.198  23.810   0.921
14656W        W67552   8.057  33.655   2.170
14657W        W67553   3.790  12.687   3.258
14658W        W67554  22.684   3.217   8.587
14659W        W67555  29.311   4.212   2.691
14660W        W67556  24.036   3.211   0.654
14661W        W67557  10.770  33.306   1.302
14662W        W67558  14.397  25.400   0.607
14663W        W67559  16.748  33.834   3.184
14664W        W67560   2.662   4.752   8.921
14665W        W67561  10.704  11.289   8.047
14666W        W67562   5.311   0.444   2.707
14667W        W67563  28.074  19.551   1.968
14668W        W67564   7.388  23.589   8.176
14669W        W67565   9.031  25.901   2.152
14670W        W67566  11.429   3.446   8.168
14671W        W67567  18.660  22.229   8.772
14672W        W67568  11.493   2.525   1.908
14673W        W67569  17.240  33.355   7.434
14674W        W67570   5.654   2.362   9.665
14675W        W67571   2.951  20.735   0.454
14676W        W67572  21.884   3.320   0.181
14677W        W67573   7.554  26.450   0.151
14678W        W67574  30.970   6.891   8.030
14679W        W67575   9.217  34.052   0.887
14680W        W67576   6.053   6.967   1.529
14681W        W67577   1.104   8.186  10.305
14682W        W67578  18.744  19.071   1.073
14683W        W67579  12.049  17.873   8.226
14684W        W67580  33.206  22.373   1.889
14685W        W67581  26.049  15.986  10.094
14686W        W67582  10.600  23.632   1.277
14687W        W67583  16.862   4.796   1.397
14688W        W67584   4.299   8.079   0.273
14689W        W67585  26.222  15.079   0.917
14690W        W67586  33.548  34.770   2.617
14691W        W67587  12.961  35.184   0.094
14692W        W67588  27.861  25.750   8.258
14693W        W67589   8.344  23.210   1.834
14694W        W67590  29.494   1.057   1.466
14695W        W67591  14.571  31.442   8.634
14696W        W67592  10.072   3.963   7.976
14697W        W67593  33.980  35.915   8.866
14698W        W67594   0.515  12.615   0.846
14699W        W67595   3.132   5.549   1.948
14700W        W67596  18.282  29.179   3.521
14701W        W67597  27.541  33.810   2.323
14702W        W67598  19.550  10.309   3.474
14703W        W67599  15.545  24.918  10.313
14704W        W67600  30.068   2.445   0.668
14705W        W67601  11.179   7.553   1.554
14706W        W67602   4.618  34.609   2.013
14707W        W67603  20.060  35.528   8.037
14708W        W67604  25.734   1.750   1.502
14709W        W67605   3.275  22.726  10.129
14710W        W67606   4.094  21.612   0.802
14711W        W67607  17.283  34.296   9.886
14712W        W67608  24.841  17.254   2.244
14713W        W67609   5.370  30.801   1.650
14714W        W67610  25.174   5.855   7.135
14715W        W67611   7.318  32.836   7.446
14716W        W67612  33.413  11.734   8.598
14717W        W67613  26.520  32.950   1.841
14718W        W67614   0.784   2.032   2.962
14719W        W67615   9.587   7.270   0.083
14720W        W67616  34.857  26.355   2.408
14721W        W67617  10.726  27.726   2.951
14722W        W67618  20.391   7.600   7.819
14723W        W67619   1.662  32.902   1.158
14724W        W67620  22.657  17.409   0.787
14725W        W67621  11.314  10.521   1.951
14726W        W67622   2.190  13.880   1.126
14727W        W67623  26.657  29.481   1.261
14728W        W67624  27.665   8.658   0.278
14729W        W67625  19.348  13.020   2.720
14730W        W67626  18.084  30.028   7.843
14731W        W67627  32.117   3.253   7.802
14732W        W67628   7.453  14.916   2.161
14733W        W67629  18.560  18.209   0.823
14734W        W67630   0.177   0.300   6.769
14735W        W67631  33.206  17.173   3.802
14736W        W67632  26.455  36.002   9.464
14737W        W67633   2.842  24.114  10.251
14738W        W67634  10.113  14.590   9.901
14739W        W67635   8.525  25.729   2.327
14740W        W67636  30.775  28.857   9.057
14741W        W67637  16.942   5.087  10.116
14742W        W67638   6.263  27.984   0.478
14743W        W67639  23.428  21.946   9.270
14744W        W67640  31.670  17.402  10.284
14745W        W67641  31.615  13.425   8.475
14746W        W67642  34.819   5.950   3.108
14747W        W67643   3.175  12.921   8.367
14748W        W67644   0.967  26.603   9.398
14749W        W67645  16.375  12.564   7.380
14750W        W67646  35.609   9.073  10.053
14751W        W67647  15.518   7.143   2.249
14752W        W67648  15.436  25.819   3.512
14753W        W67649   1.241   3.763   0.860
14754W        W67650  20.604  18.665   3.560
14755W        W67651   5.500   8.759   1.076
14756W        W67652  31.768   3.690   0.388
14757W        W67653  22.163  24.804   9.481
14758W        W67654  10.636  14.996   1.144
14759W        W67655  34.611   7.140   2.094
14760W        W67656  28.163   2.676   2.399
14761W        W67657  22.061   5.102   1.324
14762W        W67658  32.815  16.138   9.644
14763W        W67659  15.968  34.091   6.940
14764W        W67660   4.921  18.025   0.714
14765W        W67661  10.269  32.920   2.893
14766W        W67662  14.212  20.419   3.160
14767W        W67663   0.033  26.644   9.235
14768W        W67664  18.719   0.225   3.505
14769W        W67665   2.904  13.812   8.803
14770W        W67666   9.407  32.199   7.348
14771W        W67667  14.472  20.525   9.933
14772W        W67668  20.473   6.304   1.171
14773W        W67669  24.831  28.197   3.271
14774W        W67670   1.983   8.923   1.908
14775W        W67671  12.234  19.164   0.880
14776W        W67672   1.179   8.702   8.660
14777W        W67673  25.161   6.707   1.662
14778W        W67674   2.660  14.414   1.221
14779W        W67675  31.535   8.904   9.655
14780W        W67676  24.438   2.807   3.343
14781W        W67677  28.911  27.872   8.700
14782W        W67678  35.331  32.815   3.002
14783W        W67679   4.373  12.507   8.983
14784W        W67680   6.260   2.787   9.598
14785W        W67681  22.782  23.649   1.854
14786W        W67682  15.434  32.053   9.395
14787W        W67683  26.839  18.701   3.661
14788W        W67684   4.337   4.503   1.766
14789W        W67685  19.405   5.903   3.230
14790W        W67686  32.362  23.185   1.514
14791W        W67687   6.826  24.700   3.307
14792W        W67688  26.363  25.857   9.953
14793W        W67689  32.433  35.669   2.387
14794W        W67690  18.841   3.054   8.564
14795W        W67691   6.619  11.863   9.815
14796W        W67692  18.521   6.575   8.979
14797W        W67693  12.824   1.427   3.561
14798W        W67694  31.155  15.552   0.066
14799W        W67695   9.422  18.742   8.963
14800W        W67696  29.369  11.497   9.162
14801W        W67697  23.765   2.590   7.581
14802W        W67698   7.105   8.320   9.784
14803W        W67699  17.494  27.518   1.727
14804W        W67700   4.530  14.053  10.109
14805W        W67701  19.978  31.590   8.245
14806W        W67702   8.375  27.958   8.655
14807W        W67703  20.683  23.001   0.387
14808W        W67704  28.641  31.790   2.748
14809W        W67705   0.049   0.220   0.810
14810W        W67706  13.056  25.767   1.441
14811W        W67707  35.338  17.279   3.120
14812W        W67708  33.700  20.020   1.583
14813W        W67709  27.514  19.477   9.244
14814W        W67710   4.722  13.704   0.974
14815W        W67711  12.937  10.071   1.989
14816W        W67712   4.620  17.554   2.516
14817W        W67713  24.434  24.743   2.975
14818W        W67714   1.463   6.138   7.693
14819W        W67715  21.664  24.511   0.524
14820W        W67716  15.117  19.531  10.158
14821W        W67717  26.624   9.152   9.883
14822W        W67718   5.340   6.325  10.120
14823W        W67719  24.515   7.647  10.190
14824W        W67720   9.904  27.214   9.949
14825W        W67721  20.301  14.412   3.279
14826W        W67722   7.276  21.065   7.747
14827W        W67723  34.594   4.084   2.923
14828W        W67724   6.450  19.708   6.968
14829W        W67725   4.938  29.561   9.610
14830W        W67726   9.548  15.947   2.767
14831W        W67727  15.876  30.432   2.960
14832W        W67728  33.119   9.093   0.687
14833W        W67729  33.108  30.267  10.116
14834W        W67730  33.803  20.865   9.360
14835W        W67731  19.705  19.963   0.255
14836W        W67732   6.836  19.300   8.277
14837W        W67733  34.217  31.215   0.988
14838W        W67734  35.404  27.965   7.714
14839W        W67735  25.661  12.646   8.042
14840W        W67736   0.479  35.221   9.189
14841W        W67737  18.409  15.826   0.253
14842W        W67738  32.845   8.894   3.258
14843W        W67739  30.918   6.974   1.752
14844W        W67740  26.639   8.656   2.497
14845W        W67741   8.912  13.424   1.938
14846W        W67742  34.306   3.792   3.202
14847W        W67743  27.096   3.193   9.934
14848W        W67744  25.640  19.563   1.686
14849W        W67745  17.848  27.830   3.198
14850W        W67746  21.680  27.714   9.231
14851W        W67747  21.706   8.090   7.939
14852W        W67748  33.035  17.133   1.606
14853W        W67749  10.769   3.579   1.424
14854W        W67750  31.101  17.050   7.994
14855W        W67751  13.881   6.123   3.044
14856W        W67752  29.532  31.984   2.292
14857W        W67753  33.270  10.633   8.989
14858W        W67754  15.318   3.532  10.039
14859W        W67755  32.881  24.117   0.068
14860W        W67756  29.577  10.179   0.863
14861W        W67757  10.724   2.349   7.884
14862W        W67758   9.812  21.386   2.600
14863W        W67759  14.102  14.073   3.226
14864W        W67760   3.825  12.445   8.278
14865W        W67761  19.174   1.369   3.003
14866W        W67762  10.091  24.194  10.155
14867W        W67763  12.131  23.554  10.237
14868W        W67764  25.934  19.481   9.595
14869W        W67765  32.879  26.810   9.046
14870W        W67766   8.625  22.430   1.224
14871W        W67767  33.278  34.932   1.505
14872W        W67768  10.685  26.346   9.422
14873W        W67769  33.237  11.317   7.577
14874W        W67770  29.275  22.939  10.166
14875W        W67771   5.478  35.064   2.980
14876W        W67772   9.095   8.389   3.476
14877W        W67773  17.205  27.510  10.253
14878W        W67774  26.847   1.952   0.344
14879W        W67775  33.087  28.104   0.483
14880W        W67776  23.554   2.978   9.971
14881W        W67777  29.780  29.991   1.158
14882W        W67778  10.023  10.863   7.546
14883W        W67779  35.340  22.532   2.633
14884W        W67780  29.400  16.090   8.331
14885W        W67781  34.042   0.134   7.880
14886W        W67782   0.886   6.176   0.242
14887W        W67783  35.084   0.355   0.461
14888W        W67784  13.469  17.847   2.573
14889W        W67785  31.343  10.366   1.453
14890W        W67786  20.040   4.542   9.089
14891W        W67787  31.744  19.236  10.148
14892W        W67788   4.781  24.249   2.457
14893W        W67789  11.448   2.359   7.509
14894W        W67790  34.702  25.000   0.113
14895W        W67791   7.944  14.398   0.913
14896W        W67792  10.193   0.131   8.286
14897W        W67793  10.310  16.944   2.811
14898W        W67794  34.590  33.557   0.734
14899W        W67795  21.825  20.930   0.066
14900W        W67796  30.880   6.379   1.081
14901W        W67797  28.735   4.718   3.632
14902W        W67798   4.903  30.677   9.595
14903W        W67799  35.924  18.583   7.887
14904W        W67800  32.540  13.814   9.414
14905W        W67801  29.509  21.201   8.238
14906W        W67802   5.214  20.049   2.699
14907W        W67803  14.165   9.187   8.709
14908W        W67804  30.099  32.743   7.508
14909W        W67805  11.163  26.358   1.953
14910W        W67806   1.187   9.968   9.302
14911W        W67807   0.451  10.201   2.371
14912W        W67808  13.044  26.224   8.792
14913W        W67809  24.500   0.998   9.489
14914W        W67810   0.607  32.957   7.777
14915W        W67811  28.833  17.408   0.099
14916W        W67812   0.303  24.351   7.962
14917W        W67813  11.457  22.839   1.084
14918W        W67814  34.079  32.381  10.041
14919W        W67815   8.144   8.576   8.506
14920W        W67816  16.874  22.817   0.443
14921W        W67817   2.997  22.465   9.353
14922W        W67818  34.873   5.774   8.380
14923W        W67819  23.116  16.597   2.303
14924W        W67820  10.141  11.884   2.414
14925W        W67821  32.152  35.603   1.493
14926W        W67822  12.945  27.129   3.580
14927W        W67823  29.790  17.790   9.115
14928W        W67824   6.915  16.506   9.873
14929W        W67825  25.026  31.479   8.897
14930W        W67826  16.261  11.881   1.373
14931W        W67827  24.454  12.158   0.220
14932W        W67828  18.031  12.190   2.919
14933W        W67829   5.686  34.336   8.161
14934W        W67830  35.730  32.032   9.145
14935W        W67831  10.068  24.004   9.688
14936W        W67832  28.213   2.492  10.308
14937W        W67833  29.467  17.486   6.988
14938W        W67834  33.015  21.638   2.239
14939W        W67835  20.592   2.875   1.781
14940W        W67836  31.985   7.319  10.115
14941W        W67837  13.395  24.988   8.441
14942W        W67838  21.834  33.023   0.387
14943W        W67839  28.917   4.225   9.661
14944W        W67840   9.572  28.119   7.780
14945W        W67841  24.251  35.085   0.736
14946W        W67842  34.856   0.883   9.081
14947W        W67843  35.838  12.443   9.368
14948W        W67844  11.468  19.670   9.019
14949W        W67845  15.549  27.463   0.642
14950W        W67846   0.440  34.922   0.090
14951W        W67847  30.705  20.728   0.406
14952W        W67848  34.635  30.841   0.985
14953W        W67849  13.161  19.200  10.101
14954W        W67850  34.195  22.129   0.495
14955W        W67851   6.453  21.885   7.764
14956W        W67852  16.496   8.795   1.520
14957W        W67853  10.280  11.498   0.966
14958W        W67854   4.420  20.541   9.440
14959W        W67855   4.778   4.171   1.843
14960W        W67856   1.513  32.205  10.232
14961W        W67857  14.900  35.006   0.394
14962W        W67858  25.078  15.392   1.264
14963W        W67859   6.752   2.479   8.670
14964W        W67860  31.472  20.592   7.675
14965W        W67861  34.134  17.987   2.948
14966W        W67862   0.440  30.110   8.201
14967W        W67863   6.637  22.998   8.285
14968W        W67864  26.314  23.746   0.157
14969W        W67865  13.329  29.228   9.607
14970W        W67866  33.453  11.059   0.807
14971W        W67867  32.269  27.335   0.460
14972W        W67868  12.398  15.363   1.069
14973W        W67869  13.778  11.682   0.914
14974W        W67870  10.436  21.674   9.379
14975W        W67871  33.068  22.819   2.658
14976W        W67872  19.717  10.657   8.499
14977W        W67873   1.938  33.501   8.732
14978W        W67874  23.766   6.208   9.206
14979W        W67875  32.838  16.652   2.510
14980W        W67876  13.857  34.217   1.317
14981W        W67877  21.969  10.879   3.901
14982W        W67878   9.727   8.925   7.363
14983W        W67879   9.635  25.862   9.927
14984W        W67880  35.324  31.220   2.969
14985W        W67881  20.110  29.590   3.373
14986W        W67882  25.731  21.814   1.604
14987W        W67883  12.850   2.979   1.508
14988W        W67884  29.705  29.627   1.990
14989W        W67885  20.882  20.083   2.436
14990W        W67886  23.464  29.240   8.740
14991W        W67887   6.493  22.360   0.303
14992W        W67888  35.592  12.865   7.783
14993W        W67889  11.394   2.035   8.407
14994W        W67890  25.607   1.475   0.554
14995W        W67891  20.905   1.193   1.128
14996W        W67892  16.311  10.749  10.019
14997W        W67893   1.721  14.269   9.845
14998W        W67894   2.482   6.261   2.566
14999W        W67895  16.683  15.530   8.341
15000W        W67896   6.730  32.841   9.298
15001W        W67897  33.731  22.266   0.598
15002W        W67898   7.005  10.954  10.116
15003W        W67899  14.462  23.401   0.590
15004W        W67900  25.261   1.731   2.471
15005W        W67901  35.604  12.673   2.403
15006W        W67902  11.018   4.736   3.124
15007W        W67903  22.136  33.709   7.616
15008W        W67904  11.841  24.022   9.052
15009W        W67905  27.112  16.395   1.140
15010W        W67906  28.748  28.486   9.232
15011W        W67907   9.067  11.491   0.461
15012W        W67908   9.598  21.826   9.631
15013W        W67909   9.626  27.516   0.822
15014W        W67910   7.110  15.108   1.812
15015W        W67911   7.293  34.224   2.550
15016W        W67912  16.151  20.916   1.270
15017W        W67913  13.299   1.724   8.295
15018W        W67914  34.315  17.166   1.731
15019W        W67915  12.698   4.570   9.819
15020W        W67916  19.391  28.666   8.721
15021W        W67917  11.872  19.867   1.684
15022W        W67918  20.568   3.285   2.754
15023W        W67919  13.122   7.489   0.057
15024W        W67920  13.005   0.782   9.234
15025W        W67921  24.446  24.315   0.280
15026W        W67922  23.230  18.199   0.795
15027W        W67923  17.048  35.990   8.579
15028W        W67924  23.926  26.556   0.094
15029W        W67925  31.287  28.165   8.078
15030W        W67926  12.629   2.174   7.795
15031W        W67927  28.044   0.252   3.055
15032W        W67928   7.345  22.382   2.910
15033W        W67929  15.129   4.420   9.504
15034W        W67930  32.758  15.546   2.328
15035W        W67931  30.167   4.565   8.726
15036W        W67932  29.675  16.912   2.698
15037W        W67933  29.508  15.755   1.554
15038W        W67934   6.763  28.682   1.689
15039W        W67935   7.282  31.475  10.266
15040W        W67936  26.640   8.140   0.558
15041W        W67937   5.604  11.435  10.015
15042W        W67938   7.171  28.151   1.049
15043W        W67939  31.563   8.244   2.025
15044W        W67940  30.649  19.365   7.125
15045W        W67941  27.131  21.244   2.599
15046W        W67942  23.606   4.965   8.263
15047W        W67943  15.889  16.776   3.397
15048W        W67944  17.947  26.238   7.418
15049W        W67945  22.464  20.049   7.481
15050W        W67946  30.497  35.851   9.137
15051W        W67947  14.584   8.794   2.822
15052W        W67948  18.090  20.550   8.651
15053W        W67949  27.780  30.633   9.544
15054W        W67950  20.055   8.207   2.466
15055W        W67951  32.922  34.944   0.670
15056W        W67952   5.361  29.216   2.716
15057W        W67953   2.513   4.995   0.046
15058W        W67954  24.192   9.964   2.764
15059W        W67955  28.851  14.210   9.762
15060W        W67956  17.200  13.869   7.438
15061W        W67957  32.650  34.492   9.336
15062W        W67958  31.159  20.296   3.769
15063W        W67959  15.604  23.144   1.807
15064W        W67960  28.858  23.297   8.630
15065W        W67961  10.773  35.450   1.713
15066W        W67962  24.208   8.977   7.811
15067W        W67963  28.537  31.618   8.735
15068W        W67964   6.067  20.642   0.173
15069W        W67965  33.894   2.701   8.273
15070W        W67966  32.449  20.733   2.423
15071W        W67967  25.369  17.254   3.094
15072W        W67968  28.732   2.611   1.153
15073W        W67969  25.280  26.137   1.239
15074W        W67970  25.565  30.975   8.370
15075W        W67971  32.071  20.940   1.322
15076W        W67972  34.482  15.493   9.570
15077W        W67973   0.277  17.696   1.579
15078W        W67974  34.820  10.513   1.289
15079W        W67975  35.863  34.835   8.969
15080W        W67976  27.734  15.009  10.100
15081W        W67977  24.713  26.402   8.435
15082W        W67978  29.244   7.568   7.578
15083W        W67979   7.233  29.157   6.813
15084W        W67980  26.362  17.325   3.050
15085W        W67981  28.973  27.309   9.512
15086W        W67982  18.824  20.077   2.768
15087W        W67983   3.992   9.012   8.243
15088W        W67984   0.943  11.466   1.077
15089W        W67985  14.275  15.729   9.801
15090W        W67986  32.944  14.887   9.181
15091W        W67987  18.974  11.108   1.266
15092W        W67988  30.669  35.029  10.115
15093W        W67989   9.645  10.474  10.330
15094W        W67990  19.704  29.964   1.189
15095W        W67991  31.038   8.240   7.483
15096W        W67992  21.101  20.100  10.162
15097W        W67993   0.749  14.667   9.097
15098W        W67994  12.767  15.883   7.698
15099W        W67995  31.257  20.972   7.995
15100W        W67996  15.589  13.683   9.764
15101W        W67997  35.997  33.650   1.404
15102W        W67998  28.288  20.624   8.437
15103W        W67999  12.221   0.298   1.603
15104W        W68000  26.008  27.265   1.926
15105W        W68001  34.433  28.117   8.946
15106W        W68002   3.723  35.535   0.566
15107W        W68003  31.388  35.592   2.287
15108W        W68004  26.571   4.009   0.850
15109W        W68005  19.718   5.018   3.010
15110W        W68006  21.914  28.486   2.686
15111W        W68007  34.374  32.652   7.915
15112W        W68008  22.732   9.759   1.614
15113W        W68009  32.024  24.536   0.388
15114W        W68010   1.143  14.540   0.403
15115W        W68011  29.822  35.387   7.876
15116W        W68012  35.910  35.667   1.296
15117W        W68013  34.658  33.515   8.712
15118W        W68014  17.702  14.786   1.605
15119W        W68015  23.855  19.627   2.356
15120W        W68016  19.075  15.022   8.822
15121W        W68017   2.826  12.831   3.944
15122W        W68018  21.355   2.920   2.860
15123W        W68019  13.557  34.681  10.239
15124W        W68020  11.868   4.056   7.157
15125W        W68021  11.013   4.052   1.406
15126W        W68022  29.180  16.709   0.568
15127W        W68023  10.521  28.992   9.761
15128W        W68024  20.035  16.631   9.604
15129W        W68025  28.815  13.281   9.376
15130W        W68026  20.071  22.926   2.791
15131W        W68027   4.433   1.490   9.260
15132W        W68028  20.800  26.873   8.476
15133W        W68029   0.015  29.253   1.701
15134W        W68030   8.905   5.730   0.843
15135W        W68031  29.808   9.898   1.330
15136W        W68032   5.500   7.202   2.142
15137W        W68033  30.583  26.914   8.420
15138W        W68034  13.305   9.617   9.251
15139W        W68035  19.983  17.090   2.884
15140W        W68036   7.328   7.179   2.129
15141W        W68037  13.184   4.263   0.950
15142W        W68038  22.594  35.799   2.069
15143W        W68039  18.605  23.706   9.684
15144W        W68040  34.878  30.361   2.472
15145W        W68041   9.218  19.782  10.219
15146W        W68042   3.870  15.221   2.832
15147W        W68043   1.186  31.128   0.008
15148W        W68044   3.865   9.252   0.697
15149W        W68045  12.305  19.932  10.213
15150W        W68046  24.565  22.274   1.847
15151W        W68047  22.139  14.285   0.484
15152W        W68048  19.269  29.472   9.147
15153W        W68049   9.096  14.466   3.131
15154W        W68050   7.076  16.042   0.680
15155W        W68051   3.218  28.993  10.264
15156W        W68052   5.814  24.212   0.068
15157W        W68053  33.179  27.160   2.026
15158W        W68054   5.950   1.439   1.686
15159W        W68055   2.861   3.729   1.247
15160W        W68056  28.745  12.935   0.971
15161W        W68057  18.724  22.798   0.058
15162W        W68058  12.632  33.421  10.140
15163W        W68059  32.169  26.836   7.469
15164W        W68060  25.478   2.165   2.772
15165W        W68061  30.741  28.972   7.987
15166W        W68062   3.522  25.501   2.035
15167W        W68063  24.861   0.309   0.362
15168W        W68064  24.726  18.251   9.942
15169W        W68065  25.760  28.427   2.198
15170W        W68066   1.641  31.787   0.155
15171W        W68067  17.926  10.578   0.010
15172W        W68068   4.891  21.488   8.447
15173W        W68069  28.333  30.220   8.313
15174W        W68070  19.937  35.983  10.208
15175W        W68071  19.094  34.838   7.444
15176W        W68072  12.003  10.383  10.077
15177W        W68073   9.259  22.197   1.641
15178W        W68074  17.084  24.486   1.789
15179W        W68075  22.560   4.401   3.053
15180W        W68076   9.088  28.627   0.531
15181W        W68077  17.320  27.988   0.112
15182W        W68078  23.839  25.576   8.210
15183W        W68079  10.076   5.424   1.512
15184W        W68080   6.472   6.148   3.387
15185W        W68081  33.694  15.120   3.101
15186W        W68082   5.478  11.040   9.583
15187W        W68083  30.832   1.502   1.473
15188W        W68084  11.556  18.456   7.521
15189W        W68085  31.738  30.829   8.379
15190W        W68086   8.234   2.134   1.386
15191W        W68087  22.856  10.876   3.005
15192W        W68088  29.119  17.211   9.316
15193W        W68089  29.285  30.525   2.016
15194W        W68090  32.850  16.422   1.009
15195W        W68091  19.786  28.454   0.196
15196W        W68092  28.730  26.502   8.454
15197W        W68093   3.007  10.767   3.196
15198W        W68094  18.986  28.838   0.504
15199W        W68095  27.828   5.939   1.782
15200W        W68096  21.198   1.804   1.923
15201W        W68097  32.037   2.334   8.445
15202W        W68098  34.910  27.978   2.499
15203W        W68099  20.931   9.127   0.972
15204W        W68100  10.259   3.045   2.454
15205W        W68101  17.271  21.296   9.746
15206W        W68102  14.216  18.586   9.451
15207W        W68103  35.349  23.731   0.692
15208W        W68104  30.889  25.992   7.256
15209W        W68105   0.285  32.345   1.903
15210W        W68106  25.232  27.418  10.159
15211W        W68107  19.104   2.504   0.206
15212W        W68108   3.961  19.839   2.778
15213W        W68109  19.099   2.689   2.619
15214W        W68110   4.502  28.710   9.361
15215W        W68111   6.424  22.732   8.643
15216W        W68112  28.867   0.056   2.894
15217W        W68113  35.999  24.084   2.660
15218W        W68114   7.619  29.483   6.731
15219W        W68115  11.536  13.059   1.068
15220W        W68116  32.634  29.443   9.646
15221W        W68117  21.522  24.578   2.253
15222W        W68118   1.845  14.161   0.777
15223W        W68119   9.176  27.386   1.910
15224W        W68120  22.069  30.561   1.342
15225W        W68121  30.906   1.493   0.432
15226W        W68122  33.676  27.623   8.465
15227W        W68123  12.911   7.679   0.860
15228W        W68124  10.582  16.200   8.110
15229W        W68125  27.003  19.851   1.335
15230W        W68126  32.081  11.177   2.243
15231W        W68127  19.515  31.929   0.081
15232W        W68128  30.780   0.476   7.589
15233W        W68129  17.900  21.385   8.561
15234W        W68130  17.754   2.924   8.335
15235W        W68131   1.175   6.586   0.660
15236W        W68132  11.300  14.189   2.771
15237W        W68133  34.945  22.291   8.283
15238W        W68134  27.397   0.399   1.869
15239W        W68135   4.492  17.312   3.208
15240W        W68136   8.761  35.980   2.149
15241W        W68137  12.182   1.538   8.837
15242W        W68138   1.160   0.374   1.911
15243W        W68139  25.885  30.651   8.170
15244W        W68140   4.292  24.393   3.339
15245W        W68141  27.596   6.404   8.574
15246W        W68142  26.764  33.238   7.797
15247W        W68143  28.836  10.776  10.126
15248W        W68144  17.896  18.086   1.436
15249W        W68145  12.461  29.795   9.672
15250W        W68146  10.332   8.162   9.739
15251W        W68147  30.111  19.043   1.632
15252W        W68148   6.760  24.100   0.039
15253W        W68149  26.342  20.363   1.574
15254W        W68150   3.678   4.271   7.577
15255W        W68151  18.602  13.000   1.549
15256W        W68152  13.072  34.450   8.818
15257W        W68153   3.361  24.857   3.624
15258W        W68154  18.790  15.343   9.050
15259W        W68155  26.138  35.177  10.084
15260W        W68156   7.242  21.120   9.151
15261W        W68157  25.716   5.088   1.734
15262W        W68158   2.906   5.235   1.552
15263W        W68159   1.329  14.088   0.580
15264W        W68160  17.122  34.211   1.748
15265W        W68161   3.433   7.948   1.730
15266W        W68162  21.734   9.265   9.598
15267W        W68163  34.603  24.496   9.984
15268W        W68164  31.572  26.833   8.311
15269W        W68165  12.693   5.375   8.266
15270W        W68166  31.873  14.603   1.439
15271W        W68167   4.925  10.053   3.354
15272W        W68168  27.794  14.686   8.972
15273W        W68169  23.690  17.368   3.235
15274W        W68170   5.190  17.973   7.908
15275W        W68171  19.198  23.972   9.696
15276W        W68172  31.498   7.368   7.151
15277W        W68173   0.670   8.348   0.681
15278W        W68174  22.425  19.037   0.038
15279W        W68175  21.066  23.177   0.043
15280W        W68176   7.346  35.842   2.352
15281W        W68177  22.424  31.866   3.313
15282W        W68178  15.688  33.004   0.002
15283W        W68179   7.391   5.359   1.850
15284W        W68180  24.336   4.235   0.543
15285W        W68181  10.143  24.106   2.813
15286W        W68182   8.988  11.395   1.519
15287W        W68183   4.891  27.342   0.972
15288W        W68184  21.477   5.808   9.982
15289W        W68185  11.029  16.153   1.523
15290W        W68186  16.354  13.031   0.052
15291W        W68187  27.369  11.373   8.253
15292W        W68188   2.372  12.365   7.750
15293W        W68189  18.997   0.220  10.071
15294W        W68190   8.105  23.216   8.537
15295W        W68191   7.600  15.089   7.475
15296W        W68192   9.310   3.605   7.376
15297W        W68193  14.847  16.283   9.607
15298W        W68194   5.427  17.057   2.078
15299W        W68195  34.795  14.612   9.871
15300W        W68196  27.091  34.062   8.313
15301W        W68197  16.064   6.642   1.119
15302W        W68198  29.927  11.699   3.840
15303W        W68199   4.148  26.703   7.834
15304W        W68200   2.675  18.943   9.979
15305W        W68201  31.365  32.426   2.044
15306W        W68202  18.699  19.704   1.280
15307W        W68203  17.606  28.279   0.881
15308W        W68204  19.091  19.451   8.790
15309W        W68205  35.687  31.852   0.857
15310W        W68206   2.915  22.524   1.356
15311W        W68207  24.675  10.616   2.206
15312W        W68208   8.482   6.911   1.109
15313W        W68209  10.872  17.285   8.050
15314W        W68210   4.615   3.615   9.802
15315W        W68211  10.770   8.766   7.763
15316W        W68212   1.708   7.998   0.024
15317W        W68213  27.224  33.301   0.158
15318W        W68214  13.776  20.246   0.799
15319W        W68215  20.455  21.613  10.295
15320W        W68216  27.079  24.496   9.437
15321W        W68217  28.702   7.692   2.215
15322W        W68218  30.151  13.651   9.908
15323W        W68219   3.073  21.726   3.452
15324W        W68220  23.455  24.831   1.814
15325W        W68221  30.981  19.610   7.953
15326W        W68222  18.155  22.083   1.421
15327W        W68223  17.295  25.119   8.134
15328W        W68224  26.544  18.749   9.014
15329W        W68225  14.105  18.004   3.350
15330W        W68226   7.573   0.849   9.940
15331W        W68227   1.507  26.763   9.661
15332W        W68228  21.033   0.163   1.485
15333W        W68229  18.891  31.338   8.657
15334W        W68230   4.632  10.705   1.751
15335W        W68231   1.424  29.206   7.452
15336W        W68232  22.187   6.160   7.723
15337W        W68233  28.928  32.435   2.583
15338W        W68234   9.255  12.606   1.048
15339W        W68235   7.710  15.192   0.361
15340W        W68236  33.945  11.103   9.369
15341W        W68237   5.818  14.057   7.908
15342W        W68238  21.926  32.402   3.488
15343W        W68239   6.459  33.528   7.662
15344W        W68240  33.535  31.566   2.416
15345W        W68241  10.421   7.308   7.589
15346W        W68242  24.541   6.495  10.176
15347W        W68243  21.808  16.073   1.914
15348W        W68244  11.537  11.956   7.375
15349W        W68245  30.885  16.227   7.968
15350W        W68246  26.182   8.273  10.208
15351W        W68247  31.155  10.226   2.961
15352W        W68248   8.864   5.969   2.548
15353W        W68249  19.080  10.272   3.581
15354W        W68250  31.408  14.667   1.237
15355W        W68251  12.900  35.051   1.152
15356W        W68252  24.854  30.814   2.521
15357W        W68253  27.690  28.110   0.719
15358W        W68254  16.563   8.031   2.051
15359W        W68255   9.329  31.132   9.793
15360W        W68256  14.876  14.098   8.696
15361W        W68257  32.138   0.765   1.683
15362W        W68258   3.013  13.722   2.506
15363W        W68259  19.821  34.290   0.856
15364W        W68260   8.434  21.488   7.557
15365W        W68261  25.846  34.354   9.898
15366W        W68262  28.366   2.902   8.820
15367W        W68263  26.457   6.852   0.776
15368W        W68264  35.123   5.679   8.879
15369W        W68265  35.001   3.410   0.157
15370W        W68266  12.725  10.836   7.933
15371W        W68267  34.004  22.950   2.539
15372W        W68268  28.440  16.883   8.619
15373W        W68269  21.064  35.514   0.909
15374W        W68270  13.403  14.203   1.668
15375W        W68271  29.194  19.825   9.700
15376W        W68272   8.836  31.260   9.465
15377W        W68273   4.622  33.550   1.474
15378W        W68274  19.901  25.430   8.365
15379W        W68275   9.471  22.674   7.744
15380W        W68276   8.598  16.350   1.388
15381W        W68277   6.300  30.307   1.562
15382W        W68278   3.308  21.250   0.943
15383W        W68279  28.405  15.128  10.102
15384W        W68280  11.796   6.363   9.619
15385W        W68281  13.689  17.385  10.047
15386W        W68282   1.179   2.715   8.308
15387W        W68283  35.596   7.186   2.259
15388W        W68284  19.355  12.282   1.477
15389W        W68285  32.443  15.902   3.638
15390W        W68286  29.742  16.712   2.018
15391W        W68287  18.998  30.611   8.395
15392W        W68288  10.847  24.215   0.245
15393W        W68289  12.909  18.498   0.378
15394W        W68290  27.006  22.366   8.662
15395W        W68291   1.154  24.002   0.623
15396W        W68292  26.826   4.938   1.556
15397W        W68293  18.200  24.590   9.919
15398W        W68294  19.079  24.904   8.635
15399W        W68295   3.620   6.728   8.572
15400W        W68296  28.642  14.627   1.635
15401W        W68297  13.966   6.404   9.656
15402W        W68298   3.269  13.839   1.465
15403W        W68299   9.036   1.930   6.986
15404W        W68300  29.936  17.320   9.204
15405W        W68301   7.046   1.785   1.760
15406W        W68302  27.692  18.758   7.654
15407W        W68303  23.256  16.888   0.244
15408W        W68304   2.915  15.009   9.458
15409W        W68305  14.223  32.527  10.332
15410W        W68306  16.974   6.573   9.857
15411W        W68307  11.223  13.770   2.137
15412W        W68308   2.782  23.018   1.331
15413W        W68309   1.742  25.356   9.008
15414W        W68310   6.945  14.764   2.042
15415W        W68311  11.738   1.419   1.920
15416W        W68312  26.472  19.920   2.655
15417W        W68313   7.842   9.193   8.848
15418W        W68314   8.704   3.526   9.004
15419W        W68315   7.781   6.509   9.442
15420W        W68316  28.384   7.595   1.403
15421W        W68317   9.984  20.809   9.927
15422W        W68318  28.869  35.400   8.710
15423W        W68319  15.656  32.984   2.229
15424W        W68320  13.672   3.665  10.123
15425W        W68321   4.130  10.440   1.074
15426W        W68322  19.329  33.840   7.909
15427W        W68323  25.750  34.771   2.653
15428W        W68324   6.386  30.046   7.136
15429W        W68325  34.081  11.369   8.205
15430W        W68326   4.028  29.130   2.535
15431W        W68327  10.030   0.730   9.590
15432W        W68328  13.718  17.697   0.140
15433W        W68329   0.462   8.693   9.878
15434W        W68330  10.135  30.832   1.524
15435W        W68331  15.197  11.464   7.869
15436W        W68332   2.104  30.443   8.997
15437W        W68333   0.694   6.008   1.334
15438W        W68334  24.897  15.579   8.408
15439W        W68335  13.637  35.497   8.906
15440W        W68336  31.330   3.731   3.128
15441W        W68337  18.398  32.003   0.822
15442W        W68338  31.765   9.982  10.087
15443W        W68339  12.058  31.293  10.098
15444W        W68340  10.735  29.354   1.104
15445W        W68341   9.276  21.034   2.651
15446W        W68342  10.320   4.760   0.670
15447W        W68343  17.066  28.371  10.261
15448W        W68344   8.209  13.924   9.239
15449W        W68345  30.529  13.166   1.577
15450W        W68346   7.633  11.106   7.090
15451W        W68347   3.655  24.613   1.150
15452W        W68348  33.493  12.926   7.147
15453W        W68349  13.166  18.579   9.620
15454W        W68350  22.480  21.665   0.605
15455W        W68351  15.812  11.781   8.504
15456W        W68352  27.591  33.097   7.681
15457W        W68353  31.910   6.442   7.746
15458W        W68354   0.529  10.053   8.197
15459W        W68355  10.363  28.431   7.525
15460W        W68356   4.120   8.307   8.886
15461W        W68357  30.681  24.774   1.809
15462W        W68358  31.133  17.409   7.599
15463W        W68359  22.123  12.713   0.120
15464W        W68360  31.462  18.764   0.657
15465W        W68361  17.444  30.389   2.023
15466W        W68362   6.870  11.637   8.241
15467W        W68363  31.789   7.255   8.397
15468W        W68364  15.495  14.878   2.190
15469W        W68365   5.881  33.336   8.914
15470W        W68366  12.302  22.088  10.249
15471W        W68367  31.313  28.805   3.159
15472W        W68368  15.036  34.014   1.543
15473W        W68369   0.394  24.454   7.419
15474W        W68370   1.481  27.156  10.063
15475W        W68371  30.136   5.172   9.966
15476W        W68372  28.057  28.196   8.425
15477W        W68373   9.309   6.226   8.547
15478W        W68374  11.240  19.030   0.280
15479W        W68375  33.819  26.366   3.266
15480W        W68376   4.006  12.369   0.689
15481W        W68377  28.001   7.864   1.158
15482W        W68378  23.563   7.048   2.341
15483W        W68379  35.091  11.685   8.147
15484W        W68380   5.090   7.286  10.338
15485W        W68381   3.513  21.098   9.168
15486W        W68382   3.796   1.995   2.923
15487W        W68383   3.087  16.231   7.755
15488W        W68384  13.936  13.876   2.355
15489W        W68385  32.994  20.983   0.746
15490W        W68386  34.664  15.892   2.362
15491W        W68387   7.355  27.818  10.000
15492W        W68388  35.608  25.712   9.923
15493W        W68389  17.558  13.846   2.727
15494W        W68390  33.322  16.692   9.191
15495W        W68391  22.346  16.572   9.865
15496W        W68392  13.027  21.816   1.544
15497W        W68393   7.483   3.327   3.321
15498W        W68394  34.552  18.783   3.336
15499W        W68395  12.528  30.445   2.199
15500W        W68396  18.078   6.449   1.525
15501W        W68397   0.787  10.872   2.616
15502W        W68398   8.577   7.168   1.587
15503W        W68399   1.931  28.002   8.448
15504W        W68400  26.364   9.147  10.304
15505W        W68401   0.296  13.464   2.485
15506W        W68402  24.521  20.589   9.651
15507W        W68403  13.387  11.420   7.693
15508W        W68404  34.331  30.410   0.856
15509W        W68405  16.418   5.149   9.388
15510W        W68406  22.108  19.306   3.195
15511W        W68407   1.561   8.670   0.082
15512W        W68408  23.451  18.254   8.778
15513W        W68409   7.593  24.004   8.839
15514W        W68410  12.358   4.065   0.616
15515W        W68411   1.639  27.732   7.610
15516W        W68412  22.670  13.755   1.844
15517W        W68413  29.644  25.107   2.703
15518W        W68414  26.078  28.091   8.381
15519W        W68415  10.347  17.268   2.348
15520W        W68416  24.184  23.453   1.753
15521W        W68417  12.423  23.734   2.192
15522W        W68418   6.169   1.763   1.223
15523W        W68419  22.814  16.236   0.568
15524W        W68420   2.425  26.925   4.382
15525W        W68421  20.898  17.617   0.454
15526W        W68422   7.063  29.550   2.610
15527W        W68423  19.412   1.726  10.052
15528W        W68424  15.718  20.467   2.893
15529W        W68425  15.715  31.743   3.138
15530W        W68426  11.816   5.276   8.011
15531W        W68427  22.475  21.639   9.293
15532W        W68428   7.541  14.784   8.718
15533W        W68429   9.105  12.043   0.944
15534W        W68430  10.483  20.685   8.228
15535W        W68431   9.290  13.656   0.560
15536W        W68432   7.081   7.861   1.544
15537W        W68433   3.885   4.571   3.886
15538W        W68434  31.660  16.293   9.242
15539W        W68435   8.932  13.110   0.088
15540W        W68436  16.428  32.674   0.668
15541W        W68437  12.650  32.392   9.497
15542W        W68438  21.148  12.174   8.334
15543W        W68439  12.183   5.671   9.333
15544W        W68440  14.178   9.618   1.440
15545W        W68441  20.286  31.965   9.378
15546W        W68442  22.245  29.656   0.305
15547W        W68443  31.106  33.818   0.117
15548W        W68444  10.661   3.935   9.325
15549W        W68445  22.914   7.186   0.825
15550W        W68446  20.470  31.294   2.327
15551W        W68447  34.499  31.050   8.369
15552W        W68448  10.009  29.902   0.544
15553W        W68449  31.093  31.052   7.787
15554W        W68450  15.352  13.112   7.325
15555W        W68451  13.345  26.239   9.765
15556W        W68452  14.909  22.028   2.056
15557W        W68453  27.221  15.890   1.013
15558W        W68454  20.670  28.188   0.711
15559W        W68455   6.056   0.299   0.320
15560W        W68456  22.407  17.648   2.720
15561W        W68457  11.674   5.841   0.969
15562W        W68458  27.925  34.352   1.855
15563W        W68459  12.098  34.181   8.548
15564W        W68460  17.100  14.659   8.005
15565W        W68461   7.467   7.694   2.181
15566W        W68462  13.743   0.412   3.398
15567W        W68463  35.666  16.459   0.324
15568W        W68464  28.674   3.175   1.964
15569W        W68465  29.226  19.858   7.401
15570W        W68466   2.145  32.032   1.006
15571W        W68467  22.775  29.678   8.228
15572W        W68468  24.242  15.182   1.645
15573W        W68469  25.291   4.101   3.353
15574W        W68470   8.643  26.555   0.138
15575W        W68471  27.784   2.160   0.096
15576W        W68472  12.297  23.609   2.661
15577W        W68473  16.522  28.764  10.314
15578W        W68474  33.788   8.274   2.782
15579W        W68475  27.516   4.123   2.439
15580W        W68476  34.315   2.226   1.697
15581W        W68477  28.198  15.114   9.108
15582W        W68478   9.318  33.819   8.150
15583W        W68479  28.215  13.254   1.991
15584W        W68480  22.739  26.886   1.046
15585W        W68481   6.989  21.968   2.002
15586W        W68482  10.688  11.299   0.385
15587W        W68483  24.142  15.695   1.686
15588W        W68484  34.304  14.990   1.780
15589W        W68485   4.621  14.410   0.101
15590W        W68486  35.477  22.626   2.130
15591W        W68487  21.821  33.698   1.425
15592W        W68488  21.484  22.532   2.362
15593W        W68489   3.972  14.697   2.367
15594W        W68490  16.844  13.937   1.749
15595W        W68491  10.495  14.250   2.017
15596W        W68492   5.171  25.867   0.581
15597W        W68493   7.807   1.740   2.949
15598W        W68494   8.415  17.374   8.762
15599W        W68495  28.290  22.539   8.592
15600W        W68496  22.643   8.543   0.550
15601W        W68497  30.369  25.960   2.767
15602W        W68498  31.596   3.243  10.112
15603W        W68499  13.683  26.332   3.101
15604W        W68500  22.660  10.958   0.980
15605W        W68501  16.730   7.945   1.039
15606W        W68502   1.192  12.204   0.029
15607W        W68503  11.967  13.878   0.057
15608W        W68504   5.698  26.663   8.653
15609W        W68505  18.731   9.075   0.403
15610W        W68506  30.737  22.517   7.529
15611W        W68507  30.726   3.464   1.375
15612W        W68508   0.962  19.897   2.801
15613W        W68509  19.616   7.819   1.053
15614W        W68510   2.653  11.454   7.385
15615W        W68511  12.588  14.394   1.869
15616W        W68512   8.027  12.843   1.958
15617W        W68513  28.529  21.332   7.422
15618W        W68514  27.157  29.806   8.169
15619W        W68515  25.143   2.559   2.847
15620W        W68516  35.810  24.610   3.439
15621W        W68517  23.547   4.089   1.358
15622W        W68518  24.493   2.934   9.749
15623W        W68519   1.282  17.208   1.546
15624W        W68520  31.305  24.247   2.223
15625W        W68521  13.592  26.515   1.108
15626W        W68522   2.246   9.913   9.013
15627W        W68523  11.057  35.494   7.769
15628W        W68524  22.080   0.867   7.730
15629W        W68525  19.319  24.561   0.966
15630W        W68526  35.411  23.125   3.554
15631W        W68527  11.941   9.662   8.526
15632W        W68528  23.267  34.063   1.976
15633W        W68529  35.069  34.726  10.084
15634W        W68530  35.816  12.233   3.086
15635W        W68531  15.260  35.322   0.511
15636W        W68532   4.226  21.145   1.001
15637W        W68533  10.604  26.025   2.541
15638W        W68534  18.712  28.763   9.403
15639W        W68535  33.866  12.792   0.539
15640W        W68536  32.099  22.415   0.367
15641W        W68537  17.735  14.095   9.923
15642W        W68538  30.465   9.622   7.624
15643W        W68539  20.259   1.285   8.872
15644W        W68540   0.213  11.272   3.754
15645W        W68541  19.059  10.694   1.878
15646W        W68542   8.668   5.635   2.253
15647W        W68543  21.004  21.124   0.753
15648W        W68544  27.839  19.483   2.395
15649W        W68545  10.066  29.414   7.622
15650W        W68546  27.169  30.577   0.180
15651W        W68547  21.523   8.278   0.751
15652W        W68548  24.738  14.479   9.361
15653W        W68549  26.239  19.884   8.733
15654W        W68550  17.283  25.930   3.251
15655W        W68551  18.356  32.683   2.733
15656W        W68552  35.997  18.489   9.875
15657W        W68553  19.588  21.832   1.487
15658W        W68554  12.100  24.943   1.962
15659W        W68555  17.324  27.990   9.559
15660W        W68556   2.331  30.903   9.603
15661W        W68557  11.403  28.459   2.769
15662W        W68558  31.106   3.391   2.284
15663W        W68559   1.583  13.430   3.647
15664W        W68560  22.583  31.576  10.060
15665W        W68561  26.170  15.733   9.683
15666W        W68562  31.138  20.095   1.966
15667W        W68563   4.262  13.362   1.188
15668W        W68564  14.198   1.352   7.996
15669W        W68565  11.658   5.255  10.037
15670W        W68566   9.237  17.502   1.117
15671W        W68567  27.683  25.822   3.016
15672W        W68568  23.507  23.274   9.458
15673W        W68569  15.566  10.121   0.863
15674W        W68570  10.430   9.131   1.016
15675W        W68571  15.362  32.532   9.831
15676W        W68572   5.425  23.619   0.197
15677W        W68573  32.659  24.115   9.465
15678W        W68574  34.870  20.275   8.184
15679W        W68575  29.726  10.130   7.355
15680W        W68576   9.636  15.615   8.812
15681W        W68577  24.652  24.304   8.445
15682W        W68578   6.000   8.538   2.910
15683W        W68579  23.714  21.960   7.590
15684W        W68580   2.472  25.484   3.648
15685W        W68581  27.626  33.666   0.142
15686W        W68582  28.704   4.306   9.179
15687W        W68583  35.550  35.424   1.623
15688W        W68584  21.707  25.031   2.080
15689W        W68585  25.641  24.113   1.420
15690W        W68586  13.828   0.738   8.822
15691W        W68587  25.902  13.694   9.996
15692W        W68588   3.544   2.408   7.779
15693W        W68589  27.838  26.930   3.193
15694W        W68590  13.634   7.755   1.271
15695W        W68591  32.290   1.097   8.593
15696W        W68592  16.662  26.038   0.833
15697W        W68593  22.048  31.317   8.569
15698W        W68594   7.579   6.048   9.922
15699W        W68595  15.348  18.425   2.016
15700W        W68596  26.433  26.029   1.023
15701W        W68597  14.547  31.278   2.608
15702W        W68598  22.245   9.777   7.654
15703W        W68599  24.035   8.002   1.086
15704W        W68600  23.949  12.490   2.587
15705W        W68601  14.813   3.450  10.098
15706W        W68602  17.383  30.347   0.553
15707W        W68603   1.379  33.878   2.382
15708W        W68604  32.204  34.822   9.680
15709W        W68605   1.940  22.298   3.117
15710W        W68606  22.475   1.470   2.003
15711W        W68607   5.301  27.112   8.202
15712W        W68608  35.517  20.929   1.785
15713W        W68609   8.699  19.515   8.831
15714W        W68610   9.095  19.140   1.069
15715W        W68611  27.034   7.023   7.884
15716W        W68612  23.661  12.398   9.325
15717W        W68613   5.520   0.334   0.314
15718W        W68614  13.496  35.143  10.047
15719W        W68615  22.582  31.353   1.124
15720W        W68616  31.944  35.623   7.584
15721W        W68617  20.052  12.405   1.399
15722W        W68618  34.845  10.200   9.979
15723W        W68619  25.314   9.660   9.312
15724W        W68620  18.449  17.208   7.532
15725W        W68621   6.087   6.459   1.624
15726W        W68622  10.492  13.685   0.869
15727W        W68623   4.895  32.971   8.457
15728W        W68624  17.769  21.913  10.126
15729W        W68625   0.429  18.685   1.139
15730W        W68626  33.763   1.689   9.959
15731W        W68627  29.702  11.988  10.331
15732W        W68628  12.900   9.676   9.985
15733W        W68629   3.149  14.112   9.108
15734W        W68630  30.941  27.573   1.726
15735W        W68631  14.672  34.320   9.009
15736W        W68632  17.921  15.053   3.633
15737W        W68633  30.830  29.064   1.080
15738W        W68634  22.195  15.045   8.792
15739W        W68635  15.960   6.740   1.635
15740W        W68636   3.357  23.576   8.105
15741W        W68637  24.695  35.180   8.526
15742W        W68638  35.129  24.794   1.365
15743W        W68639   0.508  24.054   8.469
15744W        W68640  23.410   1.970   9.943
15745W        W68641   6.394  17.074   1.211
15746W        W68642  18.859  34.001  10.094
15747W        W68643  16.424  16.040   2.205
15748W        W68644  27.902   7.246   9.223
15749W        W68645   8.082   3.777   2.739
15750W        W68646   8.622  29.704   6.712
15751W        W68647   9.187  13.281   2.297
15752W        W68648  25.903  30.640   8.993
15753W        W68649  23.035  16.217   1.359
15754W        W68650   3.540   0.039   0.292
15755W        W68651   6.803   6.424   0.928
15756W        W68652   6.254  23.712   1.252
15757W        W68653  29.371  22.371   7.027
15758W        W68654  35.786  17.114  10.070
15759W        W68655  13.347  10.335  10.150
15760W        W68656  21.931  13.976   0.101
15761W        W68657   8.673  33.760   0.299
15762W        W68658  15.570  22.550   9.779
15763W        W68659  19.734  34.758   9.101
15764W        W68660  12.503   0.527   6.653
15765W        W68661  13.663  28.310   8.301
15766W        W68662  12.206   0.106   9.067
15767W        W68663  17.497   3.868   8.820
15768W        W68664  16.934  21.560   0.943
15769W        W68665  10.286  24.751  10.295
15770W        W68666   4.473  29.570   9.456
15771W        W68667   6.915  10.489   2.774
15772W        W68668  10.622   5.427   7.508
15773W        W68669  27.558  10.443   9.412
15774W        W68670  11.971   0.664   2.706
15775W        W68671  31.670  22.616   3.004
15776W        W68672  21.117   9.809   2.698
15777W        W68673  14.818  12.358   8.896
15778W        W68674   8.944  31.911   0.537
15779W        W68675   1.199  15.403   2.458
15780W        W68676  32.823  15.777  10.074
15781W        W68677  21.585   5.328   9.710
15782W        W68678   4.293  31.931   1.643
15783W        W68679  34.622  14.671   2.091
15784W        W68680  33.695  32.818   2.373
15785W        W68681   2.735  15.021   4.261
15786W        W68682  33.396   3.246   9.365
15787W        W68683   0.570  17.327   7.734
15788W        W68684   1.175  11.595   9.496
15789W        W68685  27.635   2.341   2.556
15790W        W68686  19.740  34.770   1.941
15791W        W68687  32.942  26.092   8.113
15792W        W68688  13.281  30.222   2.956
15793W        W68689  11.796  20.364   0.828
15794W        W68690  12.417  13.646   9.559
15795W        W68691   6.959  15.202   1.258
15796W        W68692  19.491  11.825   8.907
15797W        W68693   7.165   4.288   8.377
15798W        W68694  34.207   5.793   1.595
15799W        W68695  33.665   2.399   0.915
15800W        W68696  19.655  17.581   1.486
15801W        W68697  12.375  19.030   1.805
15802W        W68698  16.835  16.608   1.362
15803W        W68699  31.654  20.927   0.956
15804W        W68700  25.495  35.761   8.449
15805W        W68701   4.622  35.449  10.056
15806W        W68702  18.033  23.681   9.946
15807W        W68703  34.972   8.192   1.197
15808W        W68704   4.827  15.662   1.495
15809W        W68705   5.676  30.857   2.127
15810W        W68706  33.776  19.531   9.741
15811W        W68707  10.803  32.387   8.956
15812W        W68708   5.524  20.805   8.349
15813W        W68709  28.852   2.261   1.534
15814W        W68710  18.965  24.904   1.164
15815W        W68711  20.216  23.295   0.703
15816W        W68712   1.794  12.412   8.970
15817W        W68713  28.703  10.816   0.629
15818W        W68714   5.859  11.030   9.898
15819W        W68715  32.514  35.937   1.502
15820W        W68716  13.429  15.949   8.461
15821W        W68717  35.868  23.209   2.068
15822W        W68718  15.548  12.921   7.796
15823W        W68719  20.719  29.157   2.829
15824W        W68720   2.764  11.652   3.455
15825W        W68721   7.240  14.871   7.813
15826W        W68722   6.403   6.595   3.057
15827W        W68723  30.347  11.037   2.196
15828W        W68724  12.535  10.339   8.800
15829W        W68725  19.906  29.940   9.372
15830W        W68726  32.281   1.377   2.589
15831W        W68727  12.065  32.489   3.664
15832W        W68728   0.631  29.574   8.175
15833W        W68729   5.068   1.030  10.323
15834W        W68730  24.221  24.553   0.666
15835W        W68731  20.395  35.332   9.320
15836W        W68732  12.593   7.324   8.301
15837W        W68733   2.240  11.361   0.179
15838W        W68734  20.733  32.180   1.846
15839W        W68735  17.160  15.292   1.166
15840W        W68736  21.477   5.090   7.671
15841W        W68737  29.106   3.206   1.627
15842W        W68738  19.925  33.332   0.842
15843W        W68739  22.729   1.613   9.734
15844W        W68740  19.652   0.434   9.806
15845W        W68741  35.042  34.111   8.200
15846W        W68742  24.482  11.763   8.668
15847W        W68743  32.790  21.859   3.028
15848W        W68744  25.383   7.493   0.885
15849W        W68745  14.997  35.853   2.764
15850W        W68746   7.110   3.443   0.201
15851W        W68747  15.523  10.807   3.190
15852W        W68748   7.555  20.362   8.568
15853W        W68749  16.944  22.946   2.311
15854W        W68750   1.682  14.507   0.390
15855W        W68751  26.696  18.157   9.744
15856W        W68752  12.169  34.270   0.263
15857W        W68753  20.767   9.259   9.614
15858W        W68754  24.024  17.438   4.021
15859W        W68755  22.058  22.653   2.581
15860W        W68756  23.918  25.806   0.078
15861W        W68757  22.061  35.995   8.296
15862W        W68758  21.647  11.009   2.148
15863W        W68759  26.914   3.587   1.981
15864W        W68760  13.399  28.436   2.924
15865W        W68761   7.832  30.940   9.183
15866W        W68762  14.037  28.129   9.119
15867W        W68763   1.190   3.363   1.500
15868W        W68764  20.154  19.004   1.380
15869W        W68765  30.068  28.452   8.958
15870W        W68766  18.666  20.577   2.852
15871W        W68767  28.712  24.339   7.818
15872W        W68768  18.667  34.963   0.827
15873W        W68769  21.718  10.456   9.533
15874W        W68770  19.315  13.572   7.859
15875W        W68771  19.674   1.299  10.101
15876W        W68772   9.620   5.053   9.085
15877W        W68773   1.211  20.852   9.747
15878W        W68774  26.727  19.098   1.131
15879W        W68775  34.742   8.758   3.024
15880W        W68776   4.554  29.780   9.038
15881W        W68777  10.329  29.306   0.377
15882W        W68778   7.030  22.572   9.375
15883W        W68779  12.775  31.465   9.771
15884W        W68780  19.917   0.835   9.084
15885W        W68781   0.178  16.129   2.004
15886W        W68782  19.034  34.768  10.215
15887W        W68783  10.432  10.191   9.163
15888W        W68784  30.504  11.460   2.386
15889W        W68785   6.380   4.543   7.833
15890W        W68786  18.931   6.826   1.779
15891W        W68787   3.969   9.963   8.910
15892W        W68788  11.210   8.595  10.018
15893W        W68789  17.200  15.963   1.914
15894W        W68790  29.811   4.870   2.045
15895W        W68791   3.857  14.645   3.354
15896W        W68792  23.094  15.764   8.468
15897W        W68793  26.330   2.987   9.390
15898W        W68794   4.933   6.218   8.837
15899W        W68795  14.311  11.963   9.709
15900W        W68796  19.780  11.163   0.787
15901W        W68797   3.252  10.051  10.054
15902W        W68798  32.759   1.854   6.924
15903W        W68799   3.025  33.983   2.230
15904W        W68800   1.661   0.700   2.985
15905W        W68801  22.281   3.547   9.476
15906W        W68802   8.045  27.347   2.528
15907W        W68803  11.084  11.944   7.594
15908W        W68804  22.337   8.824   1.930
15909W        W68805   7.602   8.480   3.218
15910W        W68806  31.929  30.513   8.664
15911W        W68807  26.117  27.190   0.516
15912W        W68808  34.269  19.090   9.158
15913W        W68809  32.853  32.373   9.608
15914W        W68810   7.382   9.660   0.775
15915W        W68811  31.534   4.690   0.166
15916W        W68812  10.371   7.318   9.177
15917W        W68813  22.242  33.594   7.119
15918W        W68814  35.185   9.685   9.329
15919W        W68815  27.086  35.924   2.105
15920W        W68816  12.299   6.361   7.925
15921W        W68817  11.779  22.361   1.118
15922W        W68818   6.363  20.993   0.321
15923W        W68819  23.790  25.523   7.659
15924W        W68820  26.872  20.581   9.460
15925W        W68821  16.251   4.606   7.777
15926W        W68822   9.147   7.502   2.235
15927W        W68823   4.103   4.062   2.713
15928W        W68824  32.494  12.066   7.549
15929W        W68825   7.655  13.533  10.146
15930W        W68826  26.899   3.681   9.292
15931W        W68827  28.999  23.948   2.532
15932W        W68828   7.645  17.663   0.575
15933W        W68829  13.412  14.556   8.238
15934W        W68830   7.593  35.403   6.929
15935W        W68831  21.237  26.870   2.312
15936W        W68832  22.918  30.564  10.319
15937W        W68833  25.460  15.578   1.681
15938W        W68834   7.233  12.333   9.421
15939W        W68835  14.538  35.945   2.977
15940W        W68836  35.770  18.745   2.294
15941W        W68837  12.660  22.562   8.854
15942W        W68838  35.564   1.843   0.001
15943W        W68839  14.319  25.707   3.129
15944W        W68840   6.113   1.381   8.322
15945W        W68841   0.419  33.215   9.097
15946W        W68842  15.631  31.572  10.070
15947W        W68843  31.780  14.757   0.914
15948W        W68844  13.551  23.394   1.715
15949W        W68845  15.743  18.068   1.235
15950W        W68846  20.985   2.363   0.893
15951W        W68847  32.016  28.685   9.776
15952W        W68848   6.392  18.864   0.933
15953W        W68849  32.873  28.669   2.918
15954W        W68850  12.655  32.599   0.339
15955W        W68851  25.029  16.972   8.098
15956W        W68852  21.713   4.436   2.722
15957W        W68853  26.765  20.034   0.813
15958W        W68854  11.420   2.886   2.278
15959W        W68855  14.032  21.681   1.261
15960W        W68856  22.795  16.324   1.835
15961W        W68857  24.147  16.140   9.553
15962W        W68858  22.441  30.770   1.878
15963W        W68859  11.675  35.008   1.968
15964W        W68860  28.934  14.928   7.532
15965W        W68861  19.777  27.111   8.743
15966W        W68862  30.500   5.531   1.774
15967W        W68863   3.730   0.687   9.531
15968W        W68864   4.731   3.234   2.169
15969W        W68865   6.318   9.774   9.077
15970W        W68866  29.580  30.593   9.788
15971W        W68867  13.968  14.353   2.632
15972W        W68868   1.218  15.854   0.231
15973W        W68869  12.779  25.429   2.595
15974W        W68870  14.308  26.413   9.044
15975W        W68871   7.560   1.041   9.445
15976W        W68872  26.759   6.479   8.408
15977W        W68873   0.025  27.597   2.233
15978W        W68874   7.355   0.050   7.766
15979W        W68875  34.135   2.064   7.122
15980W        W68876   8.097  20.831   2.597
15981W        W68877   0.081  30.621   0.160
15982W        W68878  32.650   1.528   1.632
15983W        W68879   5.549   3.441   8.716
15984W        W68880  17.394  29.779   0.312
15985W        W68881  14.530  23.118   9.759
15986W        W68882  12.575  34.563   0.543
15987W        W68883   9.289  25.124   1.204
15988W        W68884  35.308   7.268   1.185
15989W        W68885  11.645  25.437   0.673
15990W        W68886  29.918  32.438   2.955
15991W        W68887  15.427  26.047   0.071
15992W        W68888  33.946  35.123   2.748
15993W        W68889  23.501  33.755   7.148
15994W        W68890   2.946  19.787   1.899
15995W        W68891  26.946  13.986  10.327
15996W        W68892  22.263  26.791   0.390
15997W        W68893  22.119   1.497   1.054
15998W        W68894  20.779   4.694   3.071
15999W        W68895   3.493   9.583   1.063
16000W        W68896  28.610  15.108   2.397
16001W        W68897  21.474   3.421   2.828
16002W        W68898  24.228  22.723   2.575
16003W        W68899   7.223  19.164   2.106
16004W        W68900  17.230  14.080   3.017
16005W        W68901  20.609  21.589   7.796
16006W        W68902   5.367  24.493   7.222
16007W        W68903  31.919  18.392   3.006
16008W        W68904   9.411  29.515   9.436
16009W        W68905  20.583  21.024  10.185
16010W        W68906  32.339  25.110   9.398
16011W        W68907  28.298  11.326   1.151
16012W        W68908  33.472   5.529   8.247
16013W        W68909  33.337  21.249   0.565
16014W        W68910  33.353   7.499   2.981
16015W        W68911  34.397  20.602   7.436
16016W        W68912  34.240  35.908   7.371
16017W        W68913   9.501  33.016   8.670
16018W        W68914   9.158  14.469   1.429
16019W        W68915   2.828  24.978   3.368
16020W        W68916  10.993   0.201   1.456
16021W        W68917  25.491   2.806   7.842
16022W        W68918  18.090  22.583   8.271
16023W        W68919  20.185   4.155   8.818
16024W        W68920  32.023  34.928   2.780
16025W        W68921   5.657   6.200   9.192
16026W        W68922   2.869  30.523   9.752
16027W        W68923  31.512  17.459   7.866
16028W        W68924  12.185  30.532  10.149
16029W        W68925  10.279  11.477   7.880
16030W        W68926  33.408  30.785   7.781
16031W        W68927  28.239  31.836  10.089
16032W        W68928   0.164   1.437   8.204
16033W        W68929  35.846  11.993   9.153
16034W        W68930  15.494  28.782   7.498
16035W        W68931  33.822  15.698   2.049
16036W        W68932  10.553   0.996   0.028
16037W        W68933  20.106  27.711   7.480
16038W        W68934  18.794   1.434  10.002
16039W        W68935   6.390   9.247   1.139
16040W        W68936   5.433  28.632   6.998
16041W        W68937   1.613  30.515   2.446
16042W        W68938  24.179  34.681   1.997
16043W        W68939  21.963  23.229   9.974
16044W        W68940  20.687  24.018   9.087
16045W        W68941  16.524   7.155   8.526
16046W        W68942  11.910   3.369   1.713
16047W        W68943  24.920  19.934   8.531
16048W        W68944  16.558  14.285   7.528
16049W        W68945  30.283  23.158   1.044
16050W        W68946   9.520  20.945   2.227
16051W        W68947  34.909  29.021   1.417
16052W        W68948   3.532  25.299   7.314
16053W        W68949  16.305  33.583   8.638
16054W        W68950  30.859  21.363   2.043
16055W        W68951   6.676  12.315   0.145
16056W        W68952   5.187  25.380   0.624
16057W        W68953   3.658   8.331   2.614
16058W        W68954  24.410  22.373   9.249
16059W        W68955  19.633  29.968   8.387
16060W        W68956  25.526  23.656   1.644
16061W        W68957  20.340   9.888   2.295
16062W        W68958  29.217   0.683   2.361
16063W        W68959  15.945  22.670   1.256
16064W        W68960  32.621  33.748   3.608
16065W        W68961  27.538   5.840   0.818
16066W        W68962   9.983  34.943   8.522
16067W        W68963  12.583  34.745   1.896
16068W        W68964  10.447  10.069  10.103
16069W        W68965   7.970  10.833   2.742
16070W        W68966   6.636   5.802   1.040
16071W        W68967  10.216  24.549   9.801
16072W        W68968   0.559  28.398   3.099
16073W        W68969  11.099   4.762   7.595
16074W        W68970  35.597  31.970   2.587
16075W        W68971  20.122  23.957   2.371
16076W        W68972  27.119  31.639   8.489
16077W        W68973   7.332   6.107   3.040
16078W        W68974  28.660  14.562   2.784
16079W        W68975  17.024  21.799   9.785
16080W        W68976  21.188  28.206   1.345
16081W        W68977   9.720  29.869   8.567
16082W        W68978  18.008  28.962   2.761
16083W        W68979  35.393   4.938   9.332
16084W        W68980  17.140   8.773   3.069
16085W        W68981  15.301   7.123   0.422
16086W        W68982  14.246  26.904   8.931
16087W        W68983  11.690   8.621   7.758
16088W        W68984  33.577   3.660   7.803
16089W        W68985   0.350  35.481  10.184
16090W        W68986  28.322   5.761   1.785
16091W        W68987  20.763  18.974   7.789
16092W        W68988   2.304  25.728   0.389
16093W        W68989  21.815   6.311   1.854
16094W        W68990  16.500  19.138   1.061
16095W        W68991  34.508  12.755   3.300
16096W        W68992  18.214   8.893   0.268
16097W        W68993  35.160  29.354  10.048
16098W        W68994  13.215   9.180   8.917
16099W        W68995  31.655   6.455  10.324
16100W        W68996  27.358   7.953   8.722
16101W        W68997  15.908  10.769   2.893
16102W        W68998   7.587   1.524   7.747
16103W        W68999  10.893  11.584   0.041
16104W        W69000  20.083  15.789   9.457
16105W        W69001  25.347  17.244   1.926
16106W        W69002   9.510   6.370   9.272
16107W        W69003   2.927  34.697   0.293
16108W        W69004  35.431   6.211   2.810
16109W        W69005   6.785  32.694   0.378
16110W        W69006  33.987  30.807   4.419
16111W        W69007   1.699  13.595   9.172
16112W        W69008  17.182  22.274   9.566
16113W        W69009   7.982  35.077   1.716
16114W        W69010  27.271   5.846   1.541
16115W        W69011  31.715  32.910   8.250
16116W        W69012   9.777   0.963   9.926
16117W        W69013  14.295   3.035   0.471
16118W        W69014   5.289  18.092   2.356
16119W        W69015  35.429  11.511   7.466
16120W        W69016  35.128  18.903   0.924
16121W        W69017  10.284  25.306   0.010
16122W        W69018  34.421  32.210   3.817
16123W        W69019  22.354  28.824   9.983
16124W        W69020   6.629  18.052   3.391
16125W        W69021   2.605  35.203   3.676
16126W        W69022  35.565  33.442   2.337
16127W        W69023  27.760  12.230  10.144
16128W        W69024  25.140  17.632   9.531
16129W        W69025  35.816  13.972   8.322
16130W        W69026   8.781  23.707   1.020
16131W        W69027  10.015  12.154   3.669
16132W        W69028   9.241  14.578   8.437
16133W        W69029  30.886   3.061  10.191
16134W        W69030  16.009  24.899   2.163
16135W        W69031  14.013  33.968   2.708
16136W        W69032   6.412  25.900   2.779
16137W        W69033  35.236   7.541   8.459
16138W        W69034   4.999  31.500   0.207
16139W        W69035  19.467  26.705   1.855
16140W        W69036  22.777  28.240   3.062
16141W        W69037  25.951  30.118   2.091
16142W        W69038  30.100  26.233   9.878
16143W        W69039  17.963  18.579   0.616
16144W        W69040   0.572   7.956   1.060
16145W        W69041  24.753   3.725   8.872
16146W        W69042   4.454  24.089   1.619
16147W        W69043  15.349  32.154   1.178
16148W        W69044  27.130  16.598   8.297
16149W        W69045   2.019  27.548   8.006
16150W        W69046  26.806  26.273   8.842
16151W        W69047  32.308   5.360   1.168
16152W        W69048   8.961  18.752   7.523
16153W        W69049  15.326  11.139   1.820
16154W        W69050  28.057   0.516   1.952
16155W        W69051  21.590  16.453   1.123
16156W        W69052  27.762   3.942   0.278
16157W        W69053  29.690  12.331   8.650
16158W        W69054  26.055  12.465   7.126
16159W        W69055  30.831  14.408   8.439
16160W        W69056  17.240  29.292   7.426
16161W        W69057  31.421  10.296   2.054
16162W        W69058  12.593  23.889   3.356
16163W        W69059  21.472  14.381   2.188
16164W        W69060  25.999   2.849   9.726
16165W        W69061   5.164  31.207   3.287
16166W        W69062  27.992  34.577   3.554
16167W        W69063   2.602  22.969   2.104
16168W        W69064   3.921  30.945   7.426
16169W        W69065  31.849  12.074   2.500
16170W        W69066  26.628  22.673   0.060
16171W        W69067   8.402  26.148   0.922
16172W        W69068  16.769  26.970   8.596
16173W        W69069   9.531  24.442   0.502
16174W        W69070  24.102  21.819   2.230
16175W        W69071   4.580  16.257  10.113
16176W        W69072  10.249   7.300   9.919
16177W        W69073   8.879  21.237   0.517
16178W        W69074  15.842   2.947   8.269
16179W        W69075  16.755   9.500   0.989
16180W        W69076  20.122   5.124   0.201
16181W        W69077  16.983  17.177   1.459
16182W        W69078  14.578  21.745   1.342
16183W        W69079  22.447  16.428   0.921
16184W        W69080   6.256  20.973   1.874
16185W        W69081   6.800   2.445   7.143
16186W        W69082  21.694  16.398   7.718
16187W        W69083  28.145  34.007   9.217
16188W        W69084  35.573  19.958   2.019
16189W        W69085  23.780  32.720   3.162
16190W        W69086  35.342  18.036  10.263
16191W        W69087  21.859  30.969   8.213
16192W        W69088  13.470  18.534   8.692
16193W        W69089   7.962   7.654   2.261
16194W        W69090  35.315  31.947   9.425
16195W        W69091  23.791  15.255   9.359
16196W        W69092   5.081  18.339   2.754
16197W        W69093   0.082  16.229   0.116
16198W        W69094   1.079  31.005   0.973
16199W        W69095   1.051   3.121  10.327
16200W        W69096  13.668  25.548   1.047
16201W        W69097  16.429  25.226   0.915
16202W        W69098  10.091  21.461   6.968
16203W        W69099  12.086  18.146   3.093
16204W        W69100  27.418  35.470   1.533
16205W        W69101   9.048  15.528   1.554
16206W        W69102  26.149  31.507  10.027
16207W        W69103  18.957  25.250   0.792
16208W        W69104  33.520  18.524   2.571
16209W        W69105  30.613  19.442   2.646
16210W        W69106  10.191  15.220   0.179
16211W        W69107   6.127  21.385   1.626
16212W        W69108   4.791   7.929   9.183
16213W        W69109  20.654   0.688   2.827
16214W        W69110  17.428  25.727   9.945
16215W        W69111   7.615  31.634   8.587
16216W        W69112  33.251  35.155   9.878
16217W        W69113  20.976  22.400   2.452
16218W        W69114  15.851  21.787   0.896
16219W        W69115  35.553  33.715   9.462
16220W        W69116  19.037   8.788   9.227
16221W        W69117  35.159  14.898   1.360
16222W        W69118   6.363  21.767   1.513
16223W        W69119  14.520  26.066   6.999
16224W        W69120   3.968  14.386   9.239
16225W        W69121  18.776  23.388   2.810
16226W        W69122  35.949   7.813   0.303
16227W        W69123  29.861   9.571   8.774
16228W        W69124  23.099  17.743   9.453
16229W        W69125  28.537   9.203   8.301
16230W        W69126  18.317  19.339   1.170
16231W        W69127  32.899  29.909   9.585
16232W        W69128   1.172  33.188   2.430
16233W        W69129  26.391   1.062   0.973
16234W        W69130  35.879  19.626   2.210
16235W        W69131  33.447  23.865   2.128
16236W        W69132  12.602  25.429   8.214
16237W        W69133  28.087   6.864   9.615
16238W        W69134  20.131   6.170   8.258
16239W        W69135  23.994   2.492   2.568
16240W        W69136  31.689  15.643   9.735
16241W        W69137  17.581  26.012   1.140
16242W        W69138   4.758   0.134   9.859
16243W        W69139  23.736   3.268   9.180
16244W        W69140   9.022  33.600   2.343
16245W        W69141  13.915  30.412   8.992
16246W        W69142   9.798   2.321   0.178
16247W        W69143  32.884   5.750   2.342
16248W        W69144  26.812  23.648   0.122
16249W        W69145  15.357  27.623   8.384
16250W        W69146  16.571   3.579   0.745
16251W        W69147  19.794  32.177   2.989
16252W        W69148  13.107  27.994   2.886
16253W        W69149  33.447  28.498   0.355
16254W        W69150  16.685   6.653   3.806
16255W        W69151  20.834   8.068   2.912
16256W        W69152   7.891  23.479   8.007
16257W        W69153  28.072  20.155   0.323
16258W        W69154  23.879  31.855   6.993
16259W        W69155   5.784   7.883   3.003
16260W        W69156  34.747  28.814   2.788
16261W        W69157   4.397  24.169   2.157
16262W        W69158  25.833  33.366   0.234
16263W        W69159  35.852  29.159   9.853
16264W        W69160  26.308  28.560   2.261
16265W        W69161  18.361  17.047   2.841
16266W        W69162  28.747   1.376   8.041
16267W        W69163   7.177   7.102   1.608
16268W        W69164  28.000   0.379   9.354
16269W        W69165  29.808  34.731   1.559
16270W        W69166  33.698  21.148   1.640
16271W        W69167   2.554  31.551   8.443
16272W        W69168   1.082  35.197   7.371
16273W        W69169   5.627  13.701   8.870
16274W        W69170  33.496  28.030   3.003
16275W        W69171   1.499  30.096   1.989
16276W        W69172  30.392  26.403   3.044
16277W        W69173  21.948  15.259   7.316
16278W        W69174   8.096  28.533   2.544
16279W        W69175  35.637  32.443   8.170
16280W        W69176  32.389  22.531   9.182
16281W        W69177   1.017  23.861   0.051
16282W        W69178   4.427  24.155   2.883
16283W        W69179  22.328   0.348   3.165
16284W        W69180  16.662   5.149   8.705
16285W        W69181   7.267   7.153   2.847
16286W        W69182  30.042  10.939   0.365
16287W        W69183  34.332   8.302   9.936
16288W        W69184   6.657  35.792   2.506
16289W        W69185  12.854   7.338   1.685
16290W        W69186  32.919   9.707  10.204
16291W        W69187  16.333  18.971   0.026
16292W        W69188   0.929  19.600  10.282
16293W        W69189  11.893  35.160   0.254
16294W        W69190  29.748  18.382   1.295
16295W        W69191  33.309  14.081   8.789
16296W        W69192  35.063   7.018   2.363
16297W        W69193  16.864   7.242   2.544
16298W        W69194  27.496   5.821   8.155
16299W        W69195  10.905   2.707   0.358
16300W        W69196  32.702  13.259   0.498
16301W        W69197  27.607  35.151   1.904
16302W        W69198  13.625  18.689   1.773
16303W        W69199   1.185  26.855   8.471
16304W        W69200  30.674   2.299   8.617
16305W        W69201  10.560   8.957   1.885
16306W        W69202  10.847  21.995   7.269
16307W        W69203  10.437  29.101   7.667
16308W        W69204   9.659  24.372   8.274
16309W        W69205  31.083  24.831   2.141
16310W        W69206  11.026   2.795   2.586
16311W        W69207  15.898  24.008   1.198
16312W        W69208  10.177  21.098   8.345
16313W        W69209  21.240   4.395   1.118
16314W        W69210   8.294  16.489   2.747
16315W        W69211  30.427  35.351   9.768
16316W        W69212  34.454  21.250   9.622
16317W        W69213  32.361   1.286   7.651
16318W        W69214  24.098  19.715   1.687
16319W        W69215  23.244  13.713   3.148
16320W        W69216  31.443  33.541   8.005
16321W        W69217  14.683  21.252   1.948
16322W        W69218  15.016   0.226   2.143
16323W        W69219   4.767  23.173   9.532
16324W        W69220   9.351  29.992   9.625
16325W        W69221  27.748  27.752   2.103
16326W        W69222  31.761   7.904   9.802
16327W        W69223   3.846  16.575   1.767
16328W        W69224   6.122   7.950   0.614
16329W        W69225  27.467  14.108   2.306
16330W        W69226  10.348  20.996   1.018
16331W        W69227  12.970  20.026   2.859
16332W        W69228  10.645   9.446   0.577
16333W        W69229  26.593  25.091   1.763
16334W        W69230  31.285   7.721   9.036
16335W        W69231  26.021  19.550   0.809
16336W        W69232   0.438  31.494   3.372
16337W        W69233  31.916   1.931   8.013
16338W        W69234  30.293  29.806   0.685
16339W        W69235  20.576  22.924   1.588
16340W        W69236  19.722  32.511   1.898
16341W        W69237  20.178  34.567   9.972
16342W        W69238  35.211  23.052   0.232
16343W        W69239  15.790   9.550   0.130
16344W        W69240  19.032  17.321   8.944
16345W        W69241  33.870  14.985   2.507
16346W        W69242   0.086  17.869   9.121
16347W        W69243  14.146  19.674   7.803
16348W        W69244   8.912   6.851   6.930
16349W        W69245  22.951  30.807   0.479
16350W        W69246   9.283  26.148   9.092
16351W        W69247  23.508   7.006   9.025
16352W        W69248  26.917   8.219   1.035
16353W        W69249   8.072  11.327   0.368
16354W        W69250   1.061   4.880  10.170
16355W        W69251  33.643  13.164   3.136
16356W        W69252   5.992  20.464   8.867
16357W        W69253  31.657   9.822   2.220
16358W        W69254  27.587  25.592   9.886
16359W        W69255  11.851  18.276   9.193
16360W        W69256  17.584  29.004   1.549
16361W        W69257  29.546  10.574   8.079
16362W        W69258  18.974  35.483   2.676
16363W        W69259  34.051   9.247   1.627
16364W        W69260  33.733  12.100   8.634
16365W        W69261   1.384  14.137   1.110
16366W        W69262  17.522  11.607   1.026
16367W        W69263   0.494  17.674   8.809
16368W        W69264   2.956   9.139  10.055
16369W        W69265  34.886   3.555   7.843
16370W        W69266  21.716  35.088  10.227
16371W        W69267  26.864  35.832   8.808
16372W        W69268  34.635  21.896   9.498
16373W        W69269  27.338  16.259   0.732
16374W        W69270  32.243  32.845   0.707
16375W        W69271  33.516  11.216   3.352
16376W        W69272  32.476  15.128   9.663
16377W        W69273  13.702  12.767   8.195
16378W        W69274  32.412  15.799   1.598
16379W        W69275  19.189  35.229   8.357
16380W        W69276   4.043  10.606   8.737
16381W        W69277   1.002   0.981  10.045
16382W        W69278  12.885  10.891   9.680
16383W        W69279  22.650  15.719   8.994
16384W        W69280  30.255  25.478   0.127
16385W        W69281  18.553  23.838   9.185
16386W        W69282  24.280  33.592   1.440
16387W        W69283  32.611  33.172   8.141
16388W        W69284   1.219  31.626  10.280
16389W        W69285  32.222  31.592   2.090
16390W        W69286   1.139  32.557   2.604
16391W        W69287  26.464  35.198   2.911
16392W        W69288  23.074  13.162   0.467
16393W        W69289   3.104   3.671   9.956
16394W        W69290  33.074  18.056  10.121
16395W        W69291   7.428  29.398   3.156
16396W        W69292   3.969  30.855   1.284
16397W        W69293  32.306   4.529   7.752
16398W        W69294  22.232  24.655   0.905
16399W        W69295  24.583  30.343   2.445
16400W        W69296  27.831   3.476   7.692
16401W        W69297  24.269  23.100   0.473
16402W        W69298  24.735  35.926   8.192
16403W        W69299  15.486  22.569   2.280
16404W        W69300  25.714  21.381   2.310
16405W        W69301  31.348   7.204   8.039
16406W        W69302  13.075  27.568   0.650
16407W        W69303  34.591   9.235   0.785
16408W        W69304  22.447   5.535   2.204
16409W        W69305  15.402  27.537   9.651
16410W        W69306  20.579  18.821   9.036
16411W        W69307  30.471   5.458   2.642
16412W        W69308  14.198   5.970   8.688
16413W        W69309  11.849   8.244   2.388
16414W        W69310  28.203  10.427   9.464
16415W        W69311  32.798  34.706   1.617
16416W        W69312  34.509  26.727   0.242
16417W        W69313  23.426   7.619   3.476
16418W        W69314   4.404   9.417   3.007
16419W        W69315   9.641  13.174   0.528
16420W        W69316  11.188  18.414   2.129
16421W        W69317  26.438  27.002   1.992
16422W        W69318  26.427  26.296   1.434
16423W        W69319  30.679   8.917   9.893
16424W        W69320  15.311  33.584   0.349
16425W        W69321  30.800  19.088   0.883
16426W        W69322   2.431  34.444   2.318
16427W        W69323  29.790  35.104   0.328
16428W        W69324  24.578  20.532   9.159
16429W        W69325   6.129  27.921   9.796
16430W        W69326  11.140   3.720  10.148
16431W        W69327   2.696  15.968   9.938
16432W        W69328  35.492  19.644   9.378
16433W        W69329  24.348   7.479   9.328
16434W        W69330  10.728   6.840   2.822
16435W        W69331   7.254   2.669   0.759
16436W        W69332   5.953  14.499   1.822
16437W        W69333  25.697   7.524   8.764
16438W        W69334   8.653  19.713   2.011
16439W        W69335  24.750  20.438   0.971
16440W        W69336  32.412  34.839  10.122
16441W        W69337   3.007  18.104   9.443
16442W        W69338  20.725   1.121   3.091
16443W        W69339   1.256  34.786   9.181
16444W        W69340   9.679  26.207   1.101
16445W        W69341  16.922  30.414   0.155
16446W        W69342  11.627  26.455   1.157
16447W        W69343  11.233   9.293   8.091
16448W        W69344  16.882  19.521   9.830
16449W        W69345  18.352  34.216   8.681
16450W        W69346   9.208  20.291   7.330
16451W        W69347   1.616  35.957   1.820
16452W        W69348  22.247  26.494   7.285
16453W        W69349  16.577  22.648   1.723
16454W        W69350  19.679  31.237   1.514
16455W        W69351  24.902  25.762   2.304
16456W        W69352  20.087  27.355   7.953
16457W        W69353  26.324  10.657   0.200
16458W        W69354  15.390   3.023   1.812
16459W        W69355  14.973  22.757   2.219
16460W        W69356  29.912  10.990   3.166
16461W        W69357  32.669  21.146   8.612
16462W        W69358  11.127  12.995   9.977
16463W        W69359  26.451   1.730   2.523
16464W        W69360   9.194  24.144   0.271
16465W        W69361  20.353  15.476   9.824
16466W        W69362   8.514  17.351   2.412
16467W        W69363  32.425  34.357  10.326
16468W        W69364  21.101   1.073   7.706
16469W        W69365   7.091  33.208   2.119
16470W        W69366   5.332  18.597   0.967
16471W        W69367   2.434  24.823   8.970
16472W        W69368   1.000   0.564   6.921
16473W        W69369  19.473  18.235   3.860
16474W        W69370  33.965  17.902   9.937
16475W        W69371  22.458  33.112   2.194
16476W        W69372  29.706  14.893   8.657
16477W        W69373  21.212   2.645   8.552
16478W        W69374  12.320  11.438   9.203
16479W        W69375  13.147   3.087   8.751
16480W        W69376   0.217   9.984   3.203
16481W        W69377  25.136  29.457   1.340
16482W        W69378  11.693  34.665   0.227
16483W        W69379  26.835  26.661   9.201
16484W        W69380   2.844  20.211   1.660
16485W        W69381   7.673  25.023   8.031
16486W        W69382  31.706  28.735   8.308
16487W        W69383  18.283  27.687   2.368
16488W        W69384  10.873  25.622   2.306
16489W        W69385  31.391   7.562   7.642
16490W        W69386   4.727  19.258   9.186
16491W        W69387   0.741   6.294   1.750
16492W        W69388   7.466   2.920   8.854
16493W        W69389   5.356   4.676   2.930
16494W        W69390  30.383  17.541   1.753
16495W        W69391   2.401  12.966   1.618
16496W        W69392  20.274  32.841  10.200
16497W        W69393   7.048  21.205   2.403
16498W        W69394  15.997  15.826   2.081
16499W        W69395  33.788   7.532   8.065
16500W        W69396  13.650  15.051   9.229
16501W        W69397   0.044  17.905   2.268
16502W        W69398   9.013  11.615   6.981
16503W        W69399  14.365   9.687   1.949
16504W        W69400  32.809   7.383   2.027
16505W        W69401   1.012  29.078   2.942
16506W        W69402   1.650   6.608   7.216
16507W        W69403  12.083  14.785   1.015
16508W        W69404  10.991  23.521   6.852
16509W        W69405   8.211  12.481   0.202
16510W        W69406  18.056  11.354   0.470
16511W        W69407  11.275   0.298   7.932
16512W        W69408  24.296  23.780   7.814
16513W        W69409  31.105  25.518   0.232
16514W        W69410  26.056  14.861   3.128
16515W        W69411   5.202  12.921  10.026
16516W        W69412  29.764  21.708   1.151
16517W        W69413   1.629  35.324   7.311
16518W        W69414  18.403  19.789   9.850
16519W        W69415   4.908   6.596   2.820
16520W        W69416  10.089  35.544   1.281
16521W        W69417  34.928  21.071   9.707
16522W        W69418   8.326  33.303   0.839
16523W        W69419  11.195  11.835   9.042
16524W        W69420  28.645   1.419   8.801
16525W        W69421  34.910  31.277   1.274
16526W        W69422  27.754   0.268   8.591
16527W        W69423   6.257  25.916   1.943
16528W        W69424  20.409  32.797   1.873
16529W        W69425   4.526  31.661   9.009
16530W        W69426  28.162  28.596   1.843
16531W        W69427  12.278  28.460   9.232
16532W        W69428  21.527  19.981   0.108
16533W        W69429   2.948  21.986   1.859
16534W        W69430   6.938  27.424   2.493
16535W        W69431   8.894  17.500   2.036
16536W        W69432  23.023  13.960   2.145
16537W        W69433   4.589  18.327   9.592
16538W        W69434  20.706  25.781   7.624
16539W        W69435  14.681  31.951   8.483
16540W        W69436   2.476   4.995   1.696
16541W        W69437  14.597  14.390  10.080
16542W        W69438   2.928  35.901   9.803
16543W        W69439   6.065  23.909   2.541
16544W        W69440  34.391  28.589   9.474
16545W        W69441   5.073  33.241   1.479
16546W        W69442  11.618  27.441   9.748
16547W        W69443  34.791  33.794   7.355
16548W        W69444  16.565  16.790   8.447
16549W        W69445  32.114  28.602   0.323
16550W        W69446  29.473  10.568   9.410
16551W        W69447  28.798  19.677   8.920
16552W        W69448   6.905  24.228   9.772
16553W        W69449   9.430  11.798   0.656
16554W        W69450  32.241  26.655   8.386
16555W        W69451  15.283  23.022   3.122
16556W        W69452  35.130   4.373   8.360
16557W        W69453   7.125  35.484   2.041
16558W        W69454  31.268  10.915   1.273
16559W        W69455  29.732  15.852   2.002
16560W        W69456   1.657   6.728   1.725
16561W        W69457   5.380  11.592   2.676
16562W        W69458   3.500  17.989   0.552
16563W        W69459  10.650   3.463   0.892
16564W        W69460  14.440  28.602   0.441
16565W        W69461  12.722  22.844   8.026
16566W        W69462   5.596  18.907   1.989
16567W        W69463  15.341  14.384   8.970
16568W        W69464   6.170  31.181   9.425
16569W        W69465   1.576  25.074   0.094
16570W        W69466   7.584  26.710   0.623
16571W        W69467  28.482  17.799   2.737
16572W        W69468  11.281  11.517   7.296
16573W        W69469  35.971   9.547   2.464
16574W        W69470  19.264  15.249   1.081
16575W        W69471  14.142   9.165   9.642
16576W        W69472  22.767  17.056   0.448
16577W        W69473  30.002  19.602  10.026
16578W        W69474  12.507  35.971   7.940
16579W        W69475  11.499  20.697   7.720
16580W        W69476  31.845  24.841   9.392
16581W        W69477  26.382  15.039   2.782
16582W        W69478  12.250  24.150   1.861
16583W        W69479   9.229  14.727   7.915
16584W        W69480  11.930  13.124   3.214
16585W        W69481  29.134  25.580   9.453
16586W        W69482   4.786  32.908   3.923
16587W        W69483  23.950  22.836   1.709
16588W        W69484   6.649  27.017   2.661
16589W        W69485  20.862  10.070   9.274
16590W        W69486  28.871  31.673   2.236
16591W        W69487   6.991  33.065   3.193
16592W        W69488   0.143  31.663   9.361
16593W        W69489  29.590  34.125   7.666
16594W        W69490   8.380  22.756   2.581
16595W        W69491  15.300   9.644  10.115
16596W        W69492  24.940  23.923   2.762
16597W        W69493  26.545  30.331   7.471
16598W        W69494  28.760  11.990   3.901
16599W        W69495  29.400  33.441   0.322
16600W        W69496  28.978  14.207   8.814
16601W        W69497   3.937  19.774   2.086
16602W        W69498  19.451   4.856   1.297
16603W        W69499  26.311  24.423   8.774
16604W        W69500  21.799   8.668   1.864
16605W        W69501  19.514   0.258   0.020
16606W        W69502   4.400   6.671   7.373
16607W        W69503   7.466   4.372   2.667
16608W        W69504  12.831  26.159   9.728
16609W        W69505   2.800   0.960  10.071
16610W        W69506  14.659  14.142   9.231
16611W        W69507  28.806  12.996  10.077
16612W        W69508  30.448  27.364   3.298
16613W        W69509  18.093  31.367   9.233
16614W        W69510  15.658  31.173   1.002
16615W        W69511  16.676   7.588   2.275
16616W        W69512  14.778  12.092   9.604
16617W        W69513  22.374  31.187   1.617
16618W        W69514   6.033  12.683   9.064
16619W        W69515  19.774   2.572   7.142
16620W        W69516   9.309  21.671   1.436
16621W        W69517  25.572  22.729   8.365
16622W        W69518   5.175  27.903   2.174
16623W        W69519  25.697  31.242   6.847
16624W        W69520   5.191  35.509  10.023
16625W        W69521  20.918  34.790   8.804
16626W        W69522   7.150  20.288   2.567
16627W        W69523   7.239  28.557   1.833
16628W        W69524  20.132   7.327   7.473
16629W        W69525  35.292   8.293   0.288
16630W        W69526  19.484  29.010  10.051
16631W        W69527   8.039   1.582   7.914
16632W        W69528  21.481   1.274   1.802
16633W        W69529   0.364  10.930   8.730
16634W        W69530   7.720   5.029  10.002
16635W        W69531  12.235  19.066   8.121
16636W        W69532   2.084  28.180   9.445
16637W        W69533  14.180   4.556   9.318
16638W        W69534  13.311  32.174   1.525
16639W        W69535  17.131  22.677   7.925
16640W        W69536  29.497  28.201   1.862
16641W        W69537  33.471  29.406   7.647
16642W        W69538  33.468   8.415   9.138
16643W        W69539   4.817  26.118   0.987
16644W        W69540   8.223  21.399   1.311
16645W        W69541  11.922  32.522   8.332
16646W        W69542  31.246   8.891   8.118
16647W        W69543   2.658  27.679   7.790
16648W        W69544  28.663   8.144   2.414
16649W        W69545  27.040  13.235   0.463
16650W        W69546   7.268  33.454   2.515
16651W        W69547  13.614  35.655   2.632
16652W        W69548  20.201  25.899   2.062
16653W        W69549  28.414  11.651   3.803
16654W        W69550  34.875  18.511   7.873
16655W        W69551  31.156  31.556   7.931
16656W        W69552  15.221   8.375   8.136
16657W        W69553  19.719   9.881   9.117
16658W        W69554  13.225  21.222   2.259
16659W        W69555  26.708  22.443   0.504
16660W        W69556   9.959  25.474   8.131
16661W        W69557  32.899  20.415   3.190
16662W        W69558  27.356  12.740   2.300
16663W        W69559   6.797  21.395   9.313
16664W        W69560  28.245   0.513   8.838
16665W        W69561  10.275  34.449   8.406
16666W        W69562  16.679  35.995   7.700
16667W        W69563  12.788  32.569   8.043
16668W        W69564  13.765  20.478   9.489
16669W        W69565   7.692  18.099   8.802
16670W        W69566  16.047  18.475   1.433
16671W        W69567   5.698   9.956   9.406
16672W        W69568  26.697  16.394   9.509
16673W        W69569  34.403  13.351   8.866
16674W        W69570  27.144  22.370   0.332
16675W        W69571  25.408  35.342   9.289
16676W        W69572   1.165  33.469   9.010
16677W        W69573   3.415  10.011   8.935
16678W        W69574  31.507  20.024   7.663
16679W        W69575  25.527  27.134   1.015
16680W        W69576   1.966   4.628   8.825
16681W        W69577   1.124  25.559   3.529
16682W        W69578  19.191  31.270   1.156
16683W        W69579  25.659  32.975   0.682
16684W        W69580   4.380   1.246   9.712
16685W        W69581  19.074   2.934   1.906
16686W        W69582   5.149  27.824   0.808
16687W        W69583  24.043  32.258   8.798
16688W        W69584  32.445   1.557   8.581
16689W        W69585  18.128  33.636   1.858
16690W        W69586  16.373   0.474   8.028
16691W        W69587   2.610  34.208   0.832
16692W        W69588  31.902   6.956   7.917
16693W        W69589  28.624  28.286   2.079
16694W        W69590  30.319  30.584   0.773
16695W        W69591   5.313  23.322   0.955
16696W        W69592  27.890   2.681   9.014
16697W        W69593  30.739   5.392   0.700
16698W        W69594  22.769  21.137   7.600
16699W        W69595  24.359  12.319   0.712
16700W        W69596  25.163  25.908   3.122
16701W        W69597   6.685   5.496   2.553
16702W        W69598   4.687  31.183   8.832
16703W        W69599  33.459  14.060   2.581
16704W        W69600   1.223  26.372   9.732
16705W        W69601   6.190   0.102   8.201
16706W        W69602  18.493  10.728   7.559
16707W        W69603  28.478  31.765   8.230
16708W        W69604   2.506  16.517   8.114
16709W        W69605  15.105   1.096   8.732
16710W        W69606  25.721   7.267   2.021
16711W        W69607  31.319   3.881   2.365
16712W        W69608  35.590  19.333  10.259
16713W        W69609   6.757  22.241   9.723
16714W        W69610   3.374  31.525   0.654
16715W        W69611  21.713  33.959   9.779
16716W        W69612  25.781  13.215   9.857
16717W        W69613   8.027  10.794   9.528
16718W        W69614  28.267   7.512   9.040
16719W        W69615  31.401   2.299   0.095
16720W        W69616  28.126  16.276   0.039
16721W        W69617  18.694  26.851   3.155
16722W        W69618   2.955  23.953   9.771
16723W        W69619  23.252   7.462   8.547
16724W        W69620  32.817   0.027   8.235
16725W        W69621  30.352   6.463   1.107
16726W        W69622  17.616  34.400   0.371
16727W        W69623  12.569  23.933   2.870
16728W        W69624  29.255   9.503   9.021
16729W        W69625  14.169  17.564   1.255
16730W        W69626   5.778  31.681   8.204
16731W        W69627  31.524  31.318   7.557
16732W        W69628  31.004  32.074   8.034
16733W        W69629   8.712   1.932   1.086
16734W        W69630  17.010  15.887   8.247
16735W        W69631  35.751  13.893   9.496
16736W        W69632  18.997   8.141   7.868
16737W        W69633  20.210  27.942   7.918
16738W        W69634   3.693  21.847   8.578
16739W        W69635  19.807   3.095   8.962
16740W        W69636  30.932  32.250   8.503
16741W        W69637  22.799   6.345   7.983
16742W        W69638  11.232  29.514   2.082
16743W        W69639   2.498  11.878   0.667
16744W        W69640   3.595  31.172   0.432
16745W        W69641  15.184   7.963   3.966
16746W        W69642   3.887  17.952   9.134
16747W        W69643   5.081   1.771   2.917
16748W        W69644  15.386   1.540   8.129
16749W        W69645  31.356  24.872   9.323
16750W        W69646  21.757  16.331   8.738
16751W        W69647  13.409  34.735   9.677
16752W        W69648   1.545   0.341   2.571
16753W        W69649   9.971  17.281   2.778
16754W        W69650   4.116  30.357   3.528
16755W        W69651   6.000   4.675   0.865
16756W        W69652  16.917  17.371   9.148
16757W        W69653  24.526  11.181   9.202
16758W        W69654  25.529   1.835   2.007
16759W        W69655  22.322  21.327   9.723
16760W        W69656   4.012  28.336   9.315
16761W        W69657  24.318  25.190   7.907
16762W        W69658  28.243   7.245  10.091
16763W        W69659   2.378  29.911   1.846
16764W        W69660   8.711  10.966   7.673
16765W        W69661  10.827  28.185   1.939
16766W        W69662  27.630  19.951   9.397
16767W        W69663  31.051  15.925   1.832
16768W        W69664  11.269  22.668   2.236
16769W        W69665  16.778  24.525   9.652
16770W        W69666   2.614   0.760   7.810
16771W        W69667   5.972  21.873   1.861
16772W        W69668  15.327  10.546  10.152
16773W        W69669   1.373   9.152   8.390
16774W        W69670  31.240  35.040   9.578
16775W        W69671  19.994   3.772   7.382
16776W        W69672  14.013   2.704   0.646
16777W        W69673  28.164  30.277  10.121
16778W        W69674  18.046  13.785  10.208
16779W        W69675  15.644  10.640   0.205
16780W        W69676  18.073   9.765   3.600
16781W        W69677   2.585  35.785   8.714
16782W        W69678  20.096   8.548   0.071
16783W        W69679  34.618  28.398   1.024
16784W        W69680  26.523  27.771   2.859
16785W        W69681  27.745   0.104   9.050
16786W        W69682   5.493  17.200   0.802
16787W        W69683  14.253  22.341   2.763
16788W        W69684  30.535   6.759   8.829
16789W        W69685   2.961   3.691   2.278
16790W        W69686  26.911   2.782   1.581
16791W        W69687   1.033   1.536   1.496
16792W        W69688  20.487  29.595   1.543
16793W        W69689  22.308  32.698   9.268
16794W        W69690  16.261  17.650   0.416
16795W        W69691  15.979  22.494   2.238
16796W        W69692  31.247   7.868   7.147
16797W        W69693  25.224  18.774   1.778
16798W        W69694  22.183  29.795  10.188
16799W        W69695   3.784   5.011   9.892
16800W        W69696   7.227  31.654   3.182
16801W        W69697  11.871  20.652   9.644
16802W        W69698  25.114  25.294   0.843
16803W        W69699   0.396  35.959   9.367
16804W        W69700   4.566  21.596   0.880
16805W        W69701  34.947   5.291   0.730
16806W        W69702  17.026  16.536   9.517
16807W        W69703  31.198   0.848   1.994
16808W        W69704  22.998  11.234   2.557
16809W        W69705   6.362  21.145   9.212
16810W        W69706  11.009  16.690   2.219
16811W        W69707   3.156  11.952   2.250
16812W        W69708  11.263  10.199   7.637
16813W        W69709  25.216   2.095   1.664
16814W        W69710  13.232  30.123   1.530
16815W        W69711   0.850  28.083   1.341
16816W        W69712  18.642  31.074   2.481
16817W        W69713   5.310   3.507   2.839
16818W        W69714  35.530  13.475   3.003
16819W        W69715  30.937  28.595   0.140
16820W        W69716  13.973  31.314   1.277
16821W        W69717  17.830  14.106   7.656
16822W        W69718  26.513   2.630   3.294
16823W        W69719  23.683  23.181   0.799
16824W        W69720  23.853  22.367   0.549
16825W        W69721  20.235  33.835   3.763
16826W        W69722  19.198  26.309  10.131
16827W        W69723   1.714  25.172   1.777
16828W        W69724  17.305   0.197   1.968
16829W        W69725  30.029  13.958   8.189
16830W        W69726   7.096  31.952   0.976
16831W        W69727  15.966  27.433   8.182
16832W        W69728  10.125  10.378   8.834
16833W        W69729   2.240   8.679   0.652
16834W        W69730   1.128  29.452   1.278
16835W        W69731  32.549  19.774   3.518
16836W        W69732  19.914  28.883   1.568
16837W        W69733   0.833  33.877   0.769
16838W        W69734  29.412  30.224   1.311
16839W        W69735   7.709  22.054   9.965
16840W        W69736  20.917  15.074   1.779
16841W        W69737  34.164  20.928   8.698
16842W        W69738   0.693  32.776   0.051
16843W        W69739  25.797   5.238   0.546
16844W        W69740  19.027  10.534   2.349
16845W        W69741  26.659  31.332   7.853
16846W        W69742  12.355  20.702   9.176
16847W        W69743  24.403  25.447   0.700
16848W        W69744  15.282  27.098  10.165
16849W        W69745  14.666   0.757   8.689
16850W        W69746  34.330  18.935  10.012
16851W        W69747  16.250  30.316   8.056
16852W        W69748   9.396   8.691   2.753
16853W        W69749  31.267  18.333   7.632
16854W        W69750  15.537  17.326   9.268
16855W        W69751  33.089  33.321   0.265
16856W        W69752  22.410  29.194   1.617
16857W        W69753  34.734  10.274   1.774
16858W        W69754  13.908  23.165   2.837
16859W        W69755  11.475  16.165   1.822
16860W        W69756  17.230  23.504   9.474
16861W        W69757  34.543  28.292   3.427
16862W        W69758   1.668  21.450   9.954
16863W        W69759  20.565  31.723  10.248
16864W        W69760  18.676  29.694   1.476
16865W        W69761  25.264   3.586   0.317
16866W        W69762   1.375  30.753   1.574
16867W        W69763  36.002   0.581   2.817
16868W        W69764  28.640  13.795   2.029
16869W        W69765  33.804  27.231   8.167
16870W        W69766  18.258   2.299  10.127
16871W        W69767  18.010  31.988   8.882
16872W        W69768  16.292   9.259   0.748
16873W        W69769  35.512  12.906   1.483
16874W        W69770  18.348  15.623   8.258
16875W        W69771  16.772  25.941   1.790
16876W        W69772  25.880  30.707   1.238
16877W        W69773  18.541  27.406   9.430
16878W        W69774  30.705   5.916   8.773
16879W        W69775   1.535   5.963   8.976
16880W        W69776  31.848   2.117   2.572
16881W        W69777   7.134  31.706   8.617
16882W        W69778   9.583  14.840   1.222
16883W        W69779  33.479   6.411   3.315
16884W        W69780  12.943  14.944   8.522
16885W        W69781  35.055  35.958   3.154
16886W        W69782  25.509   2.944   2.068
16887W        W69783   0.035  26.761   0.335
16888W        W69784  19.689  22.571   0.174
16889W        W69785  24.491  26.920   9.703
16890W        W69786  11.424  17.208   7.971
16891W        W69787  20.439   3.769   7.605
16892W        W69788  16.601  17.527   3.064
16893W        W69789  12.893  33.870   3.407
16894W        W69790   3.677  17.554   0.971
16895W        W69791   9.666   7.019   9.982
16896W        W69792  12.060  25.246   8.708
16897W        W69793  25.053  31.338  10.109
16898W        W69794  25.239  17.748   2.620
16899W        W69795  33.077  13.411   7.696
16900W        W69796  21.795  32.054   2.825
16901W        W69797  20.508  20.520   3.159
16902W        W69798  20.146  33.964   7.644
16903W        W69799  27.203  18.388   9.589
16904W        W69800   0.419  27.898   2.084
16905W        W69801  18.008  18.012   2.628
16906W        W69802  14.959  26.848   2.526
16907W        W69803  13.330  35.634   7.601
16908W        W69804   4.398  22.899   9.276
16909W        W69805  14.292   2.122   3.314
16910W        W69806  27.052  22.812   2.736
16911W        W69807  19.187  10.484  10.238
16912W        W69808  26.320  30.997   0.191
16913W        W69809  29.676   9.176   1.104
16914W        W69810  29.553   0.414   1.015
16915W        W69811  30.303  26.763   9.322
16916W        W69812   4.039  27.297   7.730
16917W        W69813   9.713  32.936   2.029
16918W        W69814  10.714   6.004   2.743
16919W        W69815   7.485  13.423   0.578
16920W        W69816  25.385  21.678   9.657
16921W        W69817  25.103   9.935   1.837
16922W        W69818  32.080   5.836   1.260
16923W        W69819  33.873  13.511   9.679
16924W        W69820  21.092  26.217   0.184
16925W        W69821  12.353   3.523   9.104
16926W        W69822  17.388   5.670   7.720
16927W        W69823  18.366  34.059   0.121
16928W        W69824  27.732  26.573   1.132
16929W        W69825  27.964  24.949   2.876
16930W        W69826   6.196   7.015   2.852
16931W        W69827  35.903   4.300   9.624
16932W        W69828  33.435  13.576   2.455
16933W        W69829   5.886  26.074   2.910
16934W        W69830   6.904   9.013   9.176
16935W        W69831  25.574   4.797   2.295
16936W        W69832   7.469   6.998   1.019
16937W        W69833  10.792   8.120   3.306
16938W        W69834   1.391  21.705   0.851
16939W        W69835   5.278   9.294   0.287
16940W        W69836  30.783  31.077   3.220
16941W        W69837   8.612   6.241   1.768
16942W        W69838   9.819  32.536   8.437
16943W        W69839  31.319  31.564   0.920
16944W        W69840   4.450   5.770   9.616
16945W        W69841  24.836  16.733   7.705
16946W        W69842  15.840   8.783   9.995
16947W        W69843  16.666   6.148   8.577
16948W        W69844  19.596  20.158  10.071
16949W        W69845  13.885  18.127   1.035
16950W        W69846  20.859  30.467  10.029
16951W        W69847  31.526  20.935   2.452
16952W        W69848  27.931  20.114   9.792
16953W        W69849  29.450  26.646   1.946
16954W        W69850  31.430  33.856   8.968
16955W        W69851  14.090  32.683   8.634
16956W        W69852  23.749  19.937   8.341
16957W        W69853  10.013  25.434   9.438
16958W        W69854  14.012   6.382   8.448
16959W        W69855   9.524   7.892   0.511
16960W        W69856   8.182  23.445   7.582
16961W        W69857  12.863   3.031   0.594
16962W        W69858  31.147  13.210   8.309
16963W        W69859  19.359  24.368   2.425
16964W        W69860  17.839   8.427   0.992
16965W        W69861  24.623  22.273   8.807
16966W        W69862  26.427  19.261   0.253
16967W        W69863   6.669  13.874   2.604
16968W        W69864  26.276  24.005   1.532
16969W        W69865  12.532  17.853   0.696
16970W        W69866  18.027  33.238   9.489
16971W        W69867  12.540  16.623   2.055
16972W        W69868  20.412  27.121   2.338
16973W        W69869  33.070  33.163   8.346
16974W        W69870  26.307  33.727   8.655
16975W        W69871   6.591  16.217   0.910
16976W        W69872  33.618   3.277   1.140
16977W        W69873  26.411  32.430   0.946
16978W        W69874  26.486  27.880   8.009
16979W        W69875  12.567  15.523   9.621
16980W        W69876  13.950   8.410   7.633
16981W        W69877   0.176  24.036   0.269
16982W        W69878  17.994  15.748   7.325
16983W        W69879  16.956  30.292   9.490
16984W        W69880   8.901  14.296  10.336
16985W        W69881  21.318  10.708  10.128
16986W        W69882   0.409  22.781   4.030
16987W        W69883  27.213   6.205   8.261
16988W        W69884  29.934   4.588   2.902
16989W        W69885  31.211   8.541   8.557
16990W        W69886   4.029   8.925   0.359
16991W        W69887   6.000  21.458   2.186
16992W        W69888  18.245   5.255   9.808
16993W        W69889  24.472  29.237   7.723
16994W        W69890   9.754  18.619   8.262
16995W        W69891  26.748  28.305   7.978
16996W        W69892  21.379  12.897   9.935
16997W        W69893  12.599  18.530  10.205
16998W        W69894  13.455  22.658   8.231
16999W        W69895  13.672  31.088   9.804
17000W        W69896  29.667  24.176   7.294
17001W        W69897  32.279  23.372   1.970
17002W        W69898  22.525  32.795   9.735
17003W        W69899  11.551   9.368   9.152
17004W        W69900  20.903  30.120   9.663
17005W        W69901  26.040  18.846   1.506
17006W        W69902  23.790  24.374   2.601
17007W        W69903  13.051  10.219   1.124
17008W        W69904  18.900  31.067   8.234
17009W        W69905  22.913   3.086  10.182
17010W        W69906  13.838   2.975   8.207
17011W        W69907  12.133  10.192   2.122
17012W        W69908   6.289  15.926   3.180
17013W        W69909  18.646   8.963   8.849
17014W        W69910  13.879   8.057   9.920
17015W        W69911   3.782  12.811   0.968
17016W        W69912   6.974   1.822   0.575
17017W        W69913  28.725  27.194   0.591
17018W        W69914  35.580   8.718   9.616
17019W        W69915   0.036  33.154   8.542
17020W        W69916   1.207  12.226   2.863
17021W        W69917  22.572   7.039   9.310
17022W        W69918  15.293  21.175   7.525
17023W        W69919  16.265  23.808   2.289
17024W        W69920  22.729  22.459   3.099
17025W        W69921  27.490  23.078   2.991
17026W        W69922   1.769  27.190   1.262
17027W        W69923   7.815  15.591   8.738
17028W        W69924  22.003  22.683   3.093
17029W        W69925  26.022  33.150   3.232
17030W        W69926   0.213  16.802   2.715
17031W        W69927  15.715  19.605   2.693
17032W        W69928  12.376  34.066   0.727
17033W        W69929   5.321   4.379   2.487
17034W        W69930  35.601  18.516  10.162
17035W        W69931  10.736   5.914   7.427
17036W        W69932  16.525   9.254   8.393
17037W        W69933   0.550  28.536   3.570
17038W        W69934  15.251  23.525   8.397
17039W        W69935   1.268  18.913   3.145
17040W        W69936  12.203  15.020   2.868
17041W        W69937  19.791   2.915   2.314
17042W        W69938  13.472   2.185   8.545
17043W        W69939  28.914   8.426   7.504
17044W        W69940  10.887  22.474   7.604
17045W        W69941  10.571   5.948   9.643
17046W        W69942   7.069  22.148   8.475
17047W        W69943  34.518  30.422   2.103
17048W        W69944   0.854  16.283   9.344
17049W        W69945   0.865   1.958   8.559
17050W        W69946  33.690  21.217   0.140
17051W        W69947   8.892   0.800   9.388
17052W        W69948  22.042  19.978   0.147
17053W        W69949  21.851   0.968   7.286
17054W        W69950   7.611  31.019   1.955
17055W        W69951  18.458  12.862   2.005
17056W        W69952  14.260  32.616   8.114
17057W        W69953   7.289  35.212   8.239
17058W        W69954  14.595   1.568   1.404
17059W        W69955  10.402  26.784   2.700
17060W        W69956   3.540  22.881   1.912
17061W        W69957  33.986   2.892   6.860
17062W        W69958  18.615  23.938   1.866
17063W        W69959   5.231  23.675   3.099
17064W        W69960  32.348  21.891   2.305
17065W        W69961  23.649  24.186   0.664
17066W        W69962  10.800  12.783   7.363
17067W        W69963  13.770  16.490   2.853
17068W        W69964  10.482   8.700   3.938
17069W        W69965  25.497  18.318   7.949
17070W        W69966  25.146  34.853   1.171
17071W        W69967  18.530   5.207  10.233
17072W        W69968   8.383  35.109   7.030
17073W        W69969  20.166  10.833   3.081
17074W        W69970   7.424  19.905   9.574
17075W        W69971   7.902  33.719  10.185
17076W        W69972  11.408  11.096   9.625
17077W        W69973  29.635   5.999   0.143
17078W        W69974  14.561  21.307   1.135
17079W        W69975  14.580  13.116   2.137
17080W        W69976  26.426  12.132   3.116
17081W        W69977  27.902   0.941   0.672
17082W        W69978   4.136  17.162   8.509
17083W        W69979   0.621  16.069   1.198
17084W        W69980  21.816  11.982   1.468
17085W        W69981  25.821   4.654   9.563
17086W        W69982  29.927   9.768   8.297
17087W        W69983   5.367  21.061   2.628
17088W        W69984  17.503  20.162   2.910
17089W        W69985   0.260   4.781   9.534
17090W        W69986   0.189   4.709   7.618
17091W        W69987  35.105  34.611   9.215
17092W        W69988   1.347  17.795   1.933
17093W        W69989  22.400  35.181   1.303
17094W        W69990  20.751  28.244   1.545
17095W        W69991  15.549  17.860   7.755
17096W        W69992  27.899  22.884   1.817
17097W        W69993  10.062   0.027   1.092
17098W        W69994  31.395  29.326  10.213
17099W        W69995  25.028  19.271   0.416
17100W        W69996  10.819  13.438   3.103
17101W        W69997  14.534   0.488   9.407
17102W        W69998   5.222   5.767   0.883
17103W        W69999  23.588  31.615   9.582
17104W        W70000  31.951  23.008   2.736
17105W        W70001  10.006   8.848   8.370
17106W        W70002   5.255   1.954   8.366
17107W        W70003   6.561   6.793   9.370
17108W        W70004  24.016  15.863   8.785
17109W        W70005  20.326  27.491  10.212
17110W        W70006  28.946  29.945   2.008
17111W        W70007  33.567  23.407   1.781
17112W        W70008  29.501  12.586   1.741
17113W        W70009  26.168   6.388   9.239
17114W        W70010  24.909   5.367   7.784
17115W        W70011  12.751  13.064   2.465
17116W        W70012  13.217  23.872   7.845
17117W        W70013  15.344   2.397   8.855
17118W        W70014  12.364  35.737   7.099
17119W        W70015  31.514  34.916   2.910
17120W        W70016   4.116  28.125   2.177
17121W        W70017  31.696  33.505   9.289
17122W        W70018  15.196  11.762   0.849
17123W        W70019   8.550  11.552   0.468
17124W        W70020  21.999   6.023   0.473
17125W        W70021  16.568  29.682   2.056
17126W        W70022  12.356  23.982  10.054
17127W        W70023   5.976  26.787   9.356
17128W        W70024  24.057   9.739   0.485
17129W        W70025  14.973  31.395   1.803
17130W        W70026  20.260  15.477   1.399
17131W        W70027  11.193  28.824   2.414
17132W        W70028  14.156   5.099   2.464
17133W        W70029   1.877  18.514   8.047
17134W        W70030  33.358  33.648   2.381
17135W        W70031   1.569  16.760  10.192
17136W        W70032  34.017   2.223   8.817
17137W        W70033   5.337  26.811   2.608
17138W        W70034  31.514  29.257   2.176
17139W        W70035  34.906  15.539   0.053
17140W        W70036  18.748  31.910  10.308
17141W        W70037  28.738   7.609   7.883
17142W        W70038  35.824   9.740   9.211
17143W        W70039  13.721   1.429   0.083
17144W        W70040  30.047   9.242   2.469
17145W        W70041  24.060  33.132   3.243
17146W        W70042   0.737  15.358   2.528
17147W        W70043  16.741  23.129   9.361
17148W        W70044  20.422   6.731   3.100
17149W        W70045  27.398   4.671   9.442
17150W        W70046   0.474  24.855   2.026
17151W        W70047   4.503  35.217   8.444
17152W        W70048  32.179   4.256   9.527
17153W        W70049  18.116  23.065   0.414
17154W        W70050   1.599  14.129   0.035
17155W        W70051  13.272   9.707   1.125
17156W        W70052   7.733  30.626   2.812
17157W        W70053   2.422   7.711   2.658
17158W        W70054  11.609  33.399   9.720
17159W        W70055  27.961  11.488   3.745
17160W        W70056  31.042  15.618   9.019
17161W        W70057  29.654  35.477  10.173
17162W        W70058   4.912  12.050   7.303
17163W        W70059   4.769   1.471   8.565
17164W        W70060   3.052  29.392   0.170
17165W        W70061  15.226  24.899   2.520
17166W        W70062  10.618   2.398   1.955
17167W        W70063   7.135  29.125   8.985
17168W        W70064  35.656  15.891   2.972
17169W        W70065   9.144  30.613   1.004
17170W        W70066  20.796  31.375   1.520
17171W        W70067   9.702   1.442   1.164
17172W        W70068  29.440  12.635   2.254
17173W        W70069  24.498  19.511  10.114
17174W        W70070  34.179  29.378   1.592
17175W        W70071  25.142  17.774   0.833
17176W        W70072  20.813  22.389   2.925
17177W        W70073   5.996  31.331   2.194
17178W        W70074  17.000   1.405   1.444
17179W        W70075   8.800  20.586   7.109
17180W        W70076  23.363  20.139   1.821
17181W        W70077   9.320   2.016   9.332
17182W        W70078   6.486  31.716   1.561
17183W        W70079   6.934  18.781   1.985
17184W        W70080   2.161  26.117   3.145
17185W        W70081  13.861   0.486   7.523
17186W        W70082  15.662  14.071   9.344
17187W        W70083  16.759  11.814   0.015
17188W        W70084  32.219  18.767   2.483
17189W        W70085  12.789  13.065   8.565
17190W        W70086  35.522  33.816   9.969
17191W        W70087   4.570  15.979   0.214
17192W        W70088  35.165  31.742   1.363
17193W        W70089  16.993  12.493   0.775
17194W        W70090  18.490  26.381   1.971
17195W        W70091  10.278  16.047   9.074
17196W        W70092   6.950  31.751   9.083
17197W        W70093  31.742  25.327   1.014
17198W        W70094  12.496  25.073   9.652
17199W        W70095   2.934   8.491   7.878
17200W        W70096   4.422   9.707   9.639
17201W        W70097  31.747  18.082   2.135
17202W        W70098   6.517  28.398   9.753
17203W        W70099  23.178   4.100   1.629
17204W        W70100  22.292  19.355   0.411
17205W        W70101   9.196   7.154   2.948
17206W        W70102   7.897  16.835  10.082
17207W        W70103  22.901  31.730   0.928
17208W        W70104  19.032  11.387   0.434
17209W        W70105   3.337  23.293   1.541
17210W        W70106  17.431  32.795   8.751
17211W        W70107  35.400  30.676   3.615
17212W        W70108   4.055  33.428   9.498
17213W        W70109  30.744   4.005   1.509
17214W        W70110   9.547   0.287   7.078
17215W        W70111   4.407  27.792   2.679
17216W        W70112  23.804  32.229   1.544
17217W        W70113  20.277   5.616   0.203
17218W        W70114   6.478  11.029   7.623
17219W        W70115   3.465  11.259   1.965
17220W        W70116  17.583  23.930   9.208
17221W        W70117  26.288  32.732   8.406
17222W        W70118   4.911  16.764   7.743
17223W        W70119   9.755  31.926   7.661
17224W        W70120   5.544  29.111   0.863
17225W        W70121  19.511  23.660   9.404
17226W        W70122  12.240  17.016   1.929
17227W        W70123  32.950  20.112  10.303
17228W        W70124  13.013  26.031  10.188
17229W        W70125   7.338   1.307   1.343
17230W        W70126  27.243  30.382   8.181
17231W        W70127   6.407   8.966   9.823
17232W        W70128  29.821   7.540   9.699
17233W        W70129  21.197  23.358   8.125
17234W        W70130  13.341  31.944   8.576
17235W        W70131  21.520  12.478   1.420
17236W        W70132   0.783  10.742   3.674
17237W        W70133  25.520   5.416   0.111
17238W        W70134   9.637  10.552   9.681
17239W        W70135  15.264   9.921   8.220
17240W        W70136   2.684  28.411   1.518
17241W        W70137  22.567   4.181   0.411
17242W        W70138  19.361  29.001   9.132
17243W        W70139   0.029  18.540   0.569
17244W        W70140   8.888  29.254   2.522
17245W        W70141   0.421  28.053   7.552
17246W        W70142   3.121  23.641   2.331
17247W        W70143  16.188  20.997   8.327
17248W        W70144  18.613   0.619   8.928
17249W        W70145  10.600  30.638   1.609
17250W        W70146  12.078   9.158   1.765
17251W        W70147  32.840  21.971  10.272
17252W        W70148   3.060  32.855   0.647
17253W        W70149  19.639  34.314   2.968
17254W        W70150   7.828  12.862   0.920
17255W        W70151   2.676   5.808   7.749
17256W        W70152  13.130  35.497   1.966
17257W        W70153   6.540  27.989   7.916
17258W        W70154   3.138  16.820   1.386
17259W        W70155  22.165  19.536   9.499
17260W        W70156  31.864   4.827   7.964
17261W        W70157  17.549  18.975   1.467
17262W        W70158  19.553  11.713   7.859
17263W        W70159  21.028  31.145   2.001
17264W        W70160  26.843  11.113   3.292
17265W        W70161   6.800  28.415   9.355
17266W        W70162  10.336  32.514   9.299
17267W        W70163  32.879  30.640   1.422
17268W        W70164   2.604  15.496   9.642
17269W        W70165  17.346  24.890   2.021
17270W        W70166   4.845   0.992   1.722
17271W        W70167   1.438   6.910   2.591
17272W        W70168  15.285  12.028   7.595
17273W        W70169  18.652   1.409   1.880
17274W        W70170  26.044   0.793   0.525
17275W        W70171  15.984  12.800   9.634
17276W        W70172  20.602   5.679   7.547
17277W        W70173  33.074   4.622   9.055
17278W        W70174  15.970  19.947   9.612
17279W        W70175  33.669  26.330   2.822
17280W        W70176  34.966  25.467   8.972
17281W        W70177   3.731  33.749   7.811
17282W        W70178   3.271  14.581  10.324
17283W        W70179  34.923   5.430   2.945
17284W        W70180  16.340  13.464   2.596
17285W        W70181   5.926  33.014   8.247
17286W        W70182  31.338  34.503   0.019
17287W        W70183   3.549  28.476   1.125
17288W        W70184  32.041  21.806   8.161
17289W        W70185  18.249  29.963   8.454
17290W        W70186   7.868  25.992   8.611
17291W        W70187  30.477   6.163   0.222
17292W        W70188  17.385  21.669   8.958
17293W        W70189  17.919  26.923   3.334
17294W        W70190   3.900  17.527   9.593
17295W        W70191   0.497  24.841   9.258
17296W        W70192  27.072  34.079   1.496
17297W        W70193  24.704  27.470   1.877
17298W        W70194  20.724  21.314   1.264
17299W        W70195  25.950   6.035   1.293
17300W        W70196  34.836   5.422   2.367
17301W        W70197   4.761  35.224   9.569
17302W        W70198  16.294  31.366   1.347
17303W        W70199  24.461   5.173   7.939
17304W        W70200  35.354  22.064   1.298
17305W        W70201  21.264   8.110   0.317
17306W        W70202  13.594  34.354   0.390
17307W        W70203   5.591  13.662   7.732
17308W        W70204  17.996   9.004   2.797
17309W        W70205  13.453   8.540   9.261
17310W        W70206  33.332  35.181   1.040
17311W        W70207   5.504  28.163   7.223
17312W        W70208  31.013   6.159   0.552
17313W        W70209  17.163  11.700   8.402
17314W        W70210  18.398  11.074  10.261
17315W        W70211  34.807  35.469  10.200
17316W        W70212  25.638   6.294  10.190
17317W        W70213  25.060  21.641   1.827
17318W        W70214  11.674  30.819   7.654
17319W        W70215  30.928  30.493   1.044
17320W        W70216  29.133  21.951   9.748
17321W        W70217  13.548  16.031  10.298
17322W        W70218  10.748  11.814   7.945
17323W        W70219  15.027  23.200   9.273
17324W        W70220  13.580  24.350   1.932
17325W        W70221  16.264  12.993   2.821
17326W        W70222   4.626  21.652   0.340
17327W        W70223   3.096  28.179   9.540
17328W        W70224  20.196   9.082   1.868
17329W        W70225  19.866  29.491   1.148
17330W        W70226  29.520   7.118   1.642
17331W        W70227  30.287   0.810   8.291
17332W        W70228  28.692   1.182   2.984
17333W        W70229  23.501  17.111   9.726
17334W        W70230  28.353  35.157   1.768
17335W        W70231  31.595   2.004   8.392
17336W        W70232  17.902  33.318   0.475
17337W        W70233  25.240  35.734   8.011
17338W        W70234  16.980   3.701   2.509
17339W        W70235  29.639  18.372   2.644
17340W        W70236  34.440  19.667   8.977
17341W        W70237  23.148  23.229   8.166
17342W        W70238   3.563  18.885   2.769
17343W        W70239  31.701  24.183   3.211
17344W        W70240   9.533  18.037   1.233
17345W        W70241   7.936  33.721   8.903
17346W        W70242  12.621  29.143   8.319
17347W        W70243   4.788   8.089   1.658
17348W        W70244  16.242   2.979   3.257
17349W        W70245  33.829  16.641   2.628
17350W        W70246  17.463  32.373   1.466
17351W        W70247  21.974  27.464   9.611
17352W        W70248  15.159  25.210   0.050
17353W        W70249  19.944  16.888   0.265
17354W        W70250   5.384  21.242   0.498
17355W        W70251  21.961  24.681   8.109
17356W        W70252   3.552   2.135   2.490
17357W        W70253  30.277  25.806   8.371
17358W        W70254   2.047   5.810   8.535
17359W        W70255  29.554  31.998   7.318
17360W        W70256  27.514   2.229   3.486
17361W        W70257  14.332  15.244   9.789
17362W        W70258  21.911   2.214   7.726
17363W        W70259  15.908  22.343   3.356
17364W        W70260  25.738  34.893   8.278
17365W        W70261   5.746  31.382   9.394
17366W        W70262  29.396  29.991   0.535
17367W        W70263   9.701   1.984   1.094
17368W        W70264  17.556  13.010   8.998
17369W        W70265  25.909  10.631   1.395
17370W        W70266  11.725   8.308   8.152
17371W        W70267   0.304  19.804   7.291
17372W        W70268  33.859  28.008   8.174
17373W        W70269   3.062  27.613   8.393
17374W        W70270  27.892   8.459   3.494
17375W        W70271   7.967  29.972   0.244
17376W        W70272  12.210  28.506  10.263
17377W        W70273  16.455  31.720   7.195
17378W        W70274  15.518   6.995   1.677
17379W        W70275  33.657  18.416   8.588
17380W        W70276  27.420   3.741   2.076
17381W        W70277  12.826  35.217   9.931
17382W        W70278  33.992  27.265   8.644
17383W        W70279  20.826   5.690   1.536
17384W        W70280  20.026   6.694   1.146
17385W        W70281  11.621   2.355   9.615
17386W        W70282  12.404  10.983   1.332
17387W        W70283   0.404   7.058   0.819
17388W        W70284  10.857  15.166   2.105
17389W        W70285  18.089   7.166   3.244
17390W        W70286  18.823  28.359   2.198
17391W        W70287  23.482  11.574   8.597
17392W        W70288   4.094  28.844   9.118
17393W        W70289  32.479   6.389   7.488
17394W        W70290  29.925  28.127   8.423
17395W        W70291  23.249  18.062   4.236
17396W        W70292  10.160  31.322   1.753
17397W        W70293  20.765   4.228   1.220
17398W        W70294  15.759  29.666   8.930
17399W        W70295  30.476   7.059   9.223
17400W        W70296   8.808   8.069   1.276
17401W        W70297   4.960  11.832   8.639
17402W        W70298  24.229  24.261   9.376
17403W        W70299  31.185  10.330   2.484
17404W        W70300  27.294  19.633   8.205
17405W        W70301  32.441  29.767   9.311
17406W        W70302  28.061   7.203   8.253
17407W        W70303  11.131  23.397   7.591
17408W        W70304  28.433  12.590   1.253
17409W        W70305  26.717  20.606   0.840
17410W        W70306   8.736  25.408   7.312
17411W        W70307  12.534  24.972   0.742
17412W        W70308   6.541  20.459   8.751
17413W        W70309  35.113   5.896   2.555
17414W        W70310  14.395   3.759   2.499
17415W        W70311  19.895   9.093  10.158
17416W        W70312  21.819   3.600   7.701
17417W        W70313  28.875  33.650   2.086
17418W        W70314   7.009   5.506   8.883
17419W        W70315  16.459  21.834   8.984
17420W        W70316   3.421   1.211   2.728
17421W        W70317  33.143   8.552   0.021
17422W        W70318  10.625  12.990   3.355
17423W        W70319  18.767  27.828   8.878
17424W        W70320   1.352  17.699   1.446
17425W        W70321  32.385   6.683   0.851
17426W        W70322  30.851  26.722   0.816
17427W        W70323  32.818  21.125   2.293
17428W        W70324  12.731  19.920   8.717
17429W        W70325  35.412  28.198   1.640
17430W        W70326  10.513  24.466   8.297
17431W        W70327  20.407  29.815   7.875
17432W        W70328  34.719   4.646   9.924
17433W        W70329  34.701  31.672   2.612
17434W        W70330   8.173  26.959   9.564
17435W        W70331   1.646  31.150   1.701
17436W        W70332  30.871   4.309   2.841
17437W        W70333  10.054  29.578   2.098
17438W        W70334  22.409  11.839   2.282
17439W        W70335  25.629  34.158   9.112
17440W        W70336  15.745  30.648   1.543
17441W        W70337  21.402  33.527   9.022
17442W        W70338   5.265  17.751   7.061
17443W        W70339   3.257  11.713   9.505
17444W        W70340  35.846   4.685   2.202
17445W        W70341   3.164  23.703   8.514
17446W        W70342  23.023  28.715   9.331
17447W        W70343  22.361  10.409   1.094
17448W        W70344  27.304   4.421   0.432
17449W        W70345  26.055  10.130   8.721
17450W        W70346  20.799  32.674   1.567
17451W        W70347  22.511  11.265   3.310
17452W        W70348  22.623  27.104   3.186
17453W        W70349   7.354   7.806   8.867
17454W        W70350  26.764  23.147   1.933
17455W        W70351   6.370   6.900   7.530
17456W        W70352  23.905  23.955   8.004
17457W        W70353   0.739   0.091   2.063
17458W        W70354  26.096  18.197   1.704
17459W        W70355  14.769  25.237   0.887
17460W        W70356  14.949   7.427   0.535
17461W        W70357   0.031  27.197   0.800
17462W        W70358  14.612   7.506   8.773
17463W        W70359  20.135  23.489   3.541
17464W        W70360   9.574  19.902   1.506
17465W        W70361  26.922   0.146   0.181
17466W        W70362  24.601  21.976   2.881
17467W        W70363   4.485  35.730   8.410
17468W        W70364  18.902  25.499   3.702
17469W        W70365  32.039   5.205   3.729
17470W        W70366   9.996   2.856   9.326
17471W        W70367   7.176  29.577   9.221
17472W        W70368  12.404  22.580   0.139
17473W        W70369  10.495  24.239   7.366
17474W        W70370  12.275  21.517  10.224
17475W        W70371  18.033  21.499   1.676
17476W        W70372  23.881   4.603   0.542
17477W        W70373  14.857   4.690   8.197
17478W        W70374  15.134  24.737  10.124
17479W        W70375  12.654  18.657   9.397
17480W        W70376  19.444  34.960   0.616
17481W        W70377  20.675  10.946   3.229
17482W        W70378  29.753  18.864   2.699
17483W        W70379   6.882  33.854   2.620
17484W        W70380   9.424  27.052   8.758
17485W        W70381   6.246   7.075   0.646
17486W        W70382  35.376   4.409   9.514
17487W        W70383   9.182   3.682   1.603
17488W        W70384  24.787  12.971   8.314
17489W        W70385  13.273  13.995   8.806
17490W        W70386   6.422  11.540   7.429
17491W        W70387  23.700  28.081   0.732
17492W        W70388  18.687   7.904   1.396
17493W        W70389  10.092  12.421   1.827
17494W        W70390  14.363   8.847   7.546
17495W        W70391  14.613  17.552   9.225
17496W        W70392  32.009  19.398   8.928
17497W        W70393   5.538  31.991  10.314
17498W        W70394   2.067   6.785   0.925
17499W        W70395  24.563  34.678   9.745
17500W        W70396  10.226  30.527   1.942
17501W        W70397   5.709   6.144   2.941
17502W        W70398   4.677  22.012   3.065
17503W        W70399   4.661  17.543   8.400
17504W        W70400  12.045   9.718   7.280
17505W        W70401  21.720   7.546   3.082
17506W        W70402   7.005  23.830   8.045
17507W        W70403  27.214  23.667   0.375
17508W        W70404   7.133  23.663   0.801
17509W        W70405  19.985  15.636   1.035
17510W        W70406   7.724  19.611   2.455
17511W        W70407  23.123  12.116   2.128
17512W        W70408  29.825  20.325   2.529
17513W        W70409  20.837  25.296   8.424
17514W        W70410  35.198   8.786   1.782
17515W        W70411  22.947  11.409   9.705
17516W        W70412  16.293  17.238   8.570
17517W        W70413  20.265  17.261   0.307
17518W        W70414  33.127  14.175   9.860
17519W        W70415   2.610   1.060   8.268
17520W        W70416  20.074  12.445   1.932
17521W        W70417   2.366   6.494   3.482
17522W        W70418   7.369  12.717   1.214
17523W        W70419   4.650  19.397   9.696
17524W        W70420   4.593  23.656   2.470
17525W        W70421  13.763  25.093   1.153
17526W        W70422  23.789  10.463   3.473
17527W        W70423   6.998   6.578   0.156
17528W        W70424  16.417   0.961   8.073
17529W        W70425  35.860   4.047   1.558
17530W        W70426  20.979   9.010   0.261
17531W        W70427  25.123   0.140   7.546
17532W        W70428   5.177  12.504   8.732
17533W        W70429  11.405  35.265   7.486
17534W        W70430   3.583  12.075   2.598
17535W        W70431  35.558  18.650   8.991
17536W        W70432   9.104  12.027   0.130
17537W        W70433   8.381  25.300   1.466
17538W        W70434  14.591  15.127   0.939
17539W        W70435  18.071   3.769   0.446
17540W        W70436  15.879  26.797   9.403
17541W        W70437  20.006  33.674   0.453
17542W        W70438  14.655   7.413   1.008
17543W        W70439   3.131   6.391   0.031
17544W        W70440   7.947  13.115   9.821
17545W        W70441   5.640  30.401   2.418
17546W        W70442  14.372   9.499  10.050
17547W        W70443  21.423  32.312   1.584
17548W        W70444  10.981   0.944   9.010
17549W        W70445   2.322  21.325  10.241
17550W        W70446  22.611  29.301   0.113
17551W        W70447  24.562  14.035   2.481
17552W        W70448   8.150  23.961   9.751
17553W        W70449  10.454  21.459   8.108
17554W        W70450   1.240  21.739   2.103
17555W        W70451  34.172  25.588   3.430
17556W        W70452  28.249  25.823   0.918
17557W        W70453  29.283   1.253   2.270
17558W        W70454  22.511  24.569   9.797
17559W        W70455  23.932  13.549   2.771
17560W        W70456  30.528  29.224   2.285
17561W        W70457  11.144  26.611   8.908
17562W        W70458  34.444  16.730   0.236
17563W        W70459   3.638   8.009   2.256
17564W        W70460  29.136  17.793   7.561
17565W        W70461   5.759  16.938   2.963
17566W        W70462  22.301  28.503   2.299
17567W        W70463  13.555   2.691   3.273
17568W        W70464  11.394   8.946   0.707
17569W        W70465  26.543  16.064  10.246
17570W        W70466  21.711   8.429   7.555
17571W        W70467  18.254   0.190   0.886
17572W        W70468  24.765  30.843   6.980
17573W        W70469  28.316   7.473   2.026
17574W        W70470  21.798   2.356   1.212
17575W        W70471  23.552  10.509   0.195
17576W        W70472   6.314  12.492   8.186
17577W        W70473   9.749  22.786   8.169
17578W        W70474  19.677   5.342   2.612
17579W        W70475  14.700  31.055   1.508
17580W        W70476  18.858  33.477   9.921
17581W        W70477  32.015  10.350   1.879
17582W        W70478  23.139  14.918   8.956
17583W        W70479  25.392  14.595   8.928
17584W        W70480  15.888  25.577   9.328
17585W        W70481   9.716   0.207   8.137
17586W        W70482  14.238  13.255   9.320
17587W        W70483  18.743   7.570   2.755
17588W        W70484  31.891  16.040   3.624
17589W        W70485  21.936  21.535   0.827
17590W        W70486  31.126  21.070   0.814
17591W        W70487  24.267  11.239   0.581
17592W        W70488  20.086  31.240   0.117
17593W        W70489  28.537   2.203   9.619
17594W        W70490  27.260  19.124   8.346
17595W        W70491   1.795   2.880   3.223
17596W        W70492  18.274  22.033   9.785
17597W        W70493  35.207  22.773   3.121
17598W        W70494  18.794   8.001   3.000
17599W        W70495   7.396  22.934   1.788
17600W        W70496   7.327  33.558   8.438
17601W        W70497  16.834  30.414   1.265
17602W        W70498   0.973  30.216   3.089
17603W        W70499   2.186   9.355   8.242
17604W        W70500  11.825   6.167  10.194
17605W        W70501  31.378   5.117   8.832
17606W        W70502  25.164  10.762   0.238
17607W        W70503  24.731  15.140   9.541
17608W        W70504   1.157  17.938  10.054
17609W        W70505  34.490  28.238   2.608
17610W        W70506   8.202   3.781   1.493
17611W        W70507  34.080  10.655   2.390
17612W        W70508  20.392   6.639   9.898
17613W        W70509  12.555   9.498   1.858
17614W        W70510  22.561  20.624   7.406
17615W        W70511   0.058  26.152   8.077
17616W        W70512   0.372   9.564   8.127
17617W        W70513  30.821  22.285   0.680
17618W        W70514   0.743  14.546   2.113
17619W        W70515   9.092  10.553   7.122
17620W        W70516  36.002  21.687   2.147
17621W        W70517  15.894  27.013   8.940
17622W        W70518  28.467   8.072   2.893
17623W        W70519  23.374  23.721   0.587
17624W        W70520  15.818  31.472   2.476
17625W        W70521   9.096  35.436   2.838
17626W        W70522   9.547   1.557   0.573
17627W        W70523  24.003   5.343   8.280
17628W        W70524  34.148   9.008   8.703
17629W        W70525  14.481  30.815   7.371
17630W        W70526  10.143  27.788   0.061
17631W        W70527   5.312  22.594   1.640
17632W        W70528   1.483   1.384   1.399
17633W        W70529   6.773   7.189   8.872
17634W        W70530  33.682   9.222   7.345
17635W        W70531   0.922  34.243   9.702
17636W        W70532  21.994  12.070   7.494
17637W        W70533   9.211  26.819   7.758
17638W        W70534  16.871  18.068   9.764
17639W        W70535  33.381  30.133   2.803
17640W        W70536  29.605  17.001   7.882
17641W        W70537  21.786   8.725   9.916
17642W        W70538   7.586   9.542   1.614
17643W        W70539  20.062  20.727   9.138
17644W        W70540  20.359   4.568   2.790
17645W        W70541  18.714  27.445   2.605
17646W        W70542   9.511  15.937   8.388
17647W        W70543   9.938   7.387   8.621
17648W        W70544  17.299  16.277   8.406
17649W        W70545   8.195   4.038   9.586
17650W        W70546  21.140  25.473   7.927
17651W        W70547  16.636  26.187   9.735
17652W        W70548  13.533   0.578   1.683
17653W        W70549   8.956  34.411   7.784
17654W        W70550   6.346   4.431   8.461
17655W        W70551  20.525  15.234   8.868
17656W        W70552  16.178  20.185   0.527
17657W        W70553  10.642   2.122   1.526
17658W        W70554  27.839  31.511   9.939
17659W        W70555   6.344   0.768   8.059
17660W        W70556  13.771  28.815   0.758
17661W        W70557  10.280  11.708   3.650
17662W        W70558  23.715  35.963   1.122
17663W        W70559   7.817  33.248   8.771
17664W        W70560  31.147  12.843   2.271
17665W        W70561  31.820  27.273   2.934
17666W        W70562   4.445  17.168   2.218
17667W        W70563  25.008  32.350   8.405
17668W        W70564  32.245  17.327   1.343
17669W        W70565   5.577  20.926   1.788
17670W        W70566  12.219   8.458   1.965
17671W        W70567  22.579  11.744   8.769
17672W        W70568   0.854   0.485   0.096
17673W        W70569  29.345  12.394   0.079
17674W        W70570   3.221   8.047   2.699
17675W        W70571  35.256   1.408   7.854
17676W        W70572   2.797  22.634   9.897
17677W        W70573  22.830   8.916   1.883
17678W        W70574   2.331   4.321   0.869
17679W        W70575  34.495  21.382  10.332
17680W        W70576  31.187  35.794   9.079
17681W        W70577   7.464   0.785   1.532
17682W        W70578  19.219  28.354   9.981
17683W        W70579  12.545  24.422   2.742
17684W        W70580  10.463   9.940   3.509
17685W        W70581   7.058  17.987   1.248
17686W        W70582  27.514  22.121   2.802
17687W        W70583  32.076   7.763   1.585
17688W        W70584  28.793  29.499   2.945
17689W        W70585  33.540  19.143   8.655
17690W        W70586  27.762   9.986   3.592
17691W        W70587  11.476  11.265   8.160
17692W        W70588  15.371  25.178   8.090
17693W        W70589  18.494  24.471   0.405
17694W        W70590   6.650  16.639   8.555
17695W        W70591  35.110  19.388   8.449
17696W        W70592   7.433   7.187   0.375
17697W        W70593  24.165  29.673   3.209
17698W        W70594   6.753  31.029   7.437
17699W        W70595  26.394  14.869  10.285
17700W        W70596   7.477  15.292   3.615
17701W        W70597  33.664  32.547   0.495
17702W        W70598  22.735  28.475   2.045
17703W        W70599   0.626   0.818   1.258
17704W        W70600   6.693  35.164   9.376
17705W        W70601  12.470   0.672   1.863
17706W        W70602  16.900  22.269   7.743
17707W        W70603   3.741  32.519   0.181
17708W        W70604   9.958  28.134   9.887
17709W        W70605   7.973  28.101   8.038
17710W        W70606  33.616  15.539   1.277
17711W        W70607  32.038  12.880   8.023
17712W        W70608   4.296  17.678   1.496
17713W        W70609  28.762  20.598   9.788
17714W        W70610   3.144  23.778   1.402
17715W        W70611   8.140  19.065   2.130
17716W        W70612   7.306  34.538   2.143
17717W        W70613  18.053   2.055   9.724
17718W        W70614  35.661   1.522   9.610
17719W        W70615  30.863   6.765   3.034
17720W        W70616  12.641  19.286  10.195
17721W        W70617   5.646   9.282   1.227
17722W        W70618  16.235   3.400   7.157
17723W        W70619  17.217  26.106   0.360
17724W        W70620  21.783  11.719   3.187
17725W        W70621   4.307   0.143   9.670
17726W        W70622  13.353   0.948   7.863
17727W        W70623  24.154  12.452   9.474
17728W        W70624  25.575   2.496   3.096
17729W        W70625   7.394  10.551   8.663
17730W        W70626  31.589   9.726   8.715
17731W        W70627  23.750  17.338   8.394
17732W        W70628   0.023  10.831   9.028
17733W        W70629  33.865   3.754   3.639
17734W        W70630  27.640  13.488   9.529
17735W        W70631   3.546   4.724   1.162
17736W        W70632  26.979   4.623   9.788
17737W        W70633  18.655  25.176   1.575
17738W        W70634   3.767  24.506   9.639
17739W        W70635  11.264   6.645   1.171
17740W        W70636   3.263  13.018   2.504
17741W        W70637   2.799   8.773   0.876
17742W        W70638   5.540  34.996   7.657
17743W        W70639  35.582  28.121   0.557
17744W        W70640   9.313   3.934  10.033
17745W        W70641  34.126  22.578   9.294
17746W        W70642  17.666  35.930   0.935
17747W        W70643  24.966   4.511   8.410
17748W        W70644  29.949  18.076   1.635
17749W        W70645  34.666  15.537   8.410
17750W        W70646  16.197  35.679   0.016
17751W        W70647  11.342  10.672   7.698
17752W        W70648  33.747  32.159   0.080
17753W        W70649  11.331   5.095   9.639
17754W        W70650   9.597   9.433   1.724
17755W        W70651  11.924   4.280   8.480
17756W        W70652  21.980   6.665   8.041
17757W        W70653  11.532   5.840   8.729
17758W        W70654  27.188  11.843   8.267
17759W        W70655  19.381  17.241   0.363
17760W        W70656  31.317  14.851   2.963
17761W        W70657   9.695   7.723   1.010
17762W        W70658  18.529  33.651   8.419
17763W        W70659  34.003  26.446   8.716
17764W        W70660  13.116  14.386   2.007
17765W        W70661   6.114  17.408   7.894
17766W        W70662  28.017   5.560   8.193
17767W        W70663  35.098  20.184   2.207
17768W        W70664  12.881  29.742  10.130
17769W        W70665  13.464  35.283   3.236
17770W        W70666  22.658   4.330   1.207
17771W        W70667   7.032  18.268   9.499
17772W        W70668  29.961   7.098   1.560
17773W        W70669  20.457  25.047   0.763
17774W        W70670  24.928  33.937   7.404
17775W        W70671  19.540  27.468   8.490
17776W        W70672  27.078  25.060   2.945
17777W        W70673  28.521  14.380   0.719
17778W        W70674  12.729   0.634   9.620
17779W        W70675  12.667  31.692   7.799
17780W        W70676   0.628  12.644   8.754
17781W        W70677   6.105  33.902   1.202
17782W        W70678  23.940   2.016   9.751
17783W        W70679   7.779  21.246   7.742
17784W        W70680  13.012  17.227   7.636
17785W        W70681  24.879   7.866   8.733
17786W        W70682  34.046   0.340   1.817
17787W        W70683  27.414  25.560   2.645
17788W        W70684  10.942   2.479  10.188
17789W        W70685  31.082   3.360   8.169
17790W        W70686  22.338  30.475   8.881
17791W        W70687  32.580  26.564   2.109
17792W        W70688  19.323   3.108   8.349
17793W        W70689  24.239   8.835   2.505
17794W        W70690  30.409  32.572   9.451
17795W        W70691   9.863  16.434   9.136
17796W        W70692  27.319  23.349   7.950
17797W        W70693  32.211  25.648   8.960
17798W        W70694   5.232  30.091   2.160
17799W        W70695  17.495  19.194  10.196
17800W        W70696  34.151   9.848   9.159
17801W        W70697  22.074  32.015   2.306
17802W        W70698  32.012  20.303  10.296
17803W        W70699  22.877  30.867   8.811
17804W        W70700  11.960  11.901   0.485
17805W        W70701   9.079  32.307   0.797
17806W        W70702   0.352   1.404   7.755
17807W        W70703   8.022  20.494   1.625
17808W        W70704  19.960  28.130   0.613
17809W        W70705   6.105   9.987   8.327
17810W        W70706  22.392  13.748   9.150
17811W        W70707  28.205  32.302   0.368
17812W        W70708  28.255  10.932   8.109
17813W        W70709  19.271  30.916   9.437
17814W        W70710  23.439   4.672   8.653
17815W        W70711  17.901  20.105   8.489
17816W        W70712  19.943  11.636   2.413
17817W        W70713   4.891  18.549   3.443
17818W        W70714  16.388  10.961   3.979
17819W        W70715  33.752  24.030   1.751
17820W        W70716  28.375   5.470   8.525
17821W        W70717   4.868  14.274   3.906
17822W        W70718   4.738  16.624   1.401
17823W        W70719   3.692  24.224   3.472
17824W        W70720   5.321   2.995   7.525
17825W        W70721  16.905  14.999   2.068
17826W        W70722   2.733  31.449   2.028
17827W        W70723   4.885  17.250   2.863
17828W        W70724  21.463  25.886   9.546
17829W        W70725   7.309  22.646   1.339
17830W        W70726  27.132  27.550   2.818
17831W        W70727  22.818   1.229  10.105
17832W        W70728   4.147  30.948  10.302
17833W        W70729   9.018  34.317   3.569
17834W        W70730   3.914  27.492   7.290
17835W        W70731   9.369  21.634   9.984
17836W        W70732  15.059  34.630   2.107
17837W        W70733  35.513   9.440   2.318
17838W        W70734  10.049   1.333   9.622
17839W        W70735  24.813  24.314   9.332
17840W        W70736  12.691  12.493   0.545
17841W        W70737   2.199  10.166   0.856
17842W        W70738  13.026  30.597   7.908
17843W        W70739  20.845  20.566  10.280
17844W        W70740  30.196  23.190   2.185
17845W        W70741  13.483   8.767  10.241
17846W        W70742  16.465  25.554   0.588
17847W        W70743  18.018  18.629   8.511
17848W        W70744  15.346  31.661   9.139
17849W        W70745  10.488  28.219  10.025
17850W        W70746  22.030  10.042   9.782
17851W        W70747   8.711   6.257   0.115
17852W        W70748  11.442  27.646   2.243
17853W        W70749  32.231  31.238   9.131
17854W        W70750  10.197  11.892   1.842
17855W        W70751   6.406  21.949  10.195
17856W        W70752  24.163  35.607   8.783
17857W        W70753  26.779  29.958   7.305
17858W        W70754  23.116  24.735   2.290
17859W        W70755  27.449   2.796   9.922
17860W        W70756  23.070   4.516   3.167
17861W        W70757  20.017  17.846   2.419
17862W        W70758  15.059  24.612   9.245
17863W        W70759   2.439   2.275   1.066
17864W        W70760  12.669   3.830   0.290
17865W        W70761  15.752  17.784   1.662
17866W        W70762  22.195  22.195   7.593
17867W        W70763  35.767  18.636   8.415
17868W        W70764  31.759  23.629   1.232
17869W        W70765  23.544   2.954   2.803
17870W        W70766   9.070  13.468   7.563
17871W        W70767  16.199  31.088   0.284
17872W        W70768  29.119  26.945   8.550
17873W        W70769  19.187  24.041   1.318
17874W        W70770   6.297  34.924   1.382
17875W        W70771   9.901  11.709   9.509
17876W        W70772   3.815  34.935   9.677
17877W        W70773  15.018  20.691   9.865
17878W        W70774  35.396  13.108   0.853
17879W        W70775  35.892  25.781   9.515
17880W        W70776  31.149   8.037   9.952
17881W        W70777   1.005   2.759   7.624
17882W        W70778  22.417   7.202   0.656
17883W        W70779  25.918  15.747   8.475
17884W        W70780  11.547  35.862   1.217
17885W        W70781  26.456   1.362   2.857
17886W        W70782   8.245  12.197   8.264
17887W        W70783   5.688  13.700   2.165
17888W        W70784   7.912  10.399   1.463
17889W        W70785  17.452  23.021   8.045
17890W        W70786  18.011  34.564   7.378
17891W        W70787  29.541  14.332   8.816
17892W        W70788  15.716   2.716   1.577
17893W        W70789  30.001   0.955   0.254
17894W        W70790   4.959  19.942   7.917
17895W        W70791   8.611  25.004   3.532
17896W        W70792  29.036  11.876   9.500
17897W        W70793   9.322  18.967   8.515
17898W        W70794  29.539  29.979   8.041
17899W        W70795  18.508  14.868  10.267
17900W        W70796   3.790  18.658   8.056
17901W        W70797   4.618  19.496   0.066
17902W        W70798  30.743  16.608   2.301
17903W        W70799   1.819   7.525   0.952
17904W        W70800   7.387  21.650   8.616
17905W        W70801  20.057  26.797   9.929
17906W        W70802   1.532  28.297   7.773
17907W        W70803  17.643  31.725   8.187
17908W        W70804  13.746  22.710   0.444
17909W        W70805  21.160   7.061   0.259
17910W        W70806  26.417  20.680   1.907
17911W        W70807   8.249   1.654   2.763
17912W        W70808   9.690  20.409   1.435
17913W        W70809  21.717   8.118   1.193
17914W        W70810  22.410  27.232   8.931
17915W        W70811  27.166  28.875   0.263
17916W        W70812  29.767  31.653   0.084
17917W        W70813  14.870  14.358   9.664
17918W        W70814   1.323  28.509  10.067
17919W        W70815  19.460  30.286  10.193
17920W        W70816  11.418  30.741   2.040
17921W        W70817  15.206  13.527   8.617
17922W        W70818  24.033  31.833   8.030
17923W        W70819   5.815   1.270   2.330
17924W        W70820   8.789  15.732   7.820
17925W        W70821  14.449  31.600   2.954
17926W        W70822  30.597  15.761   7.457
17927W        W70823  11.492  18.069   9.532
17928W        W70824  30.483   2.901   0.645
17929W        W70825   6.665  22.107   1.275
17930W        W70826   9.093  31.060   7.898
17931W        W70827   1.494   6.526   8.098
17932W        W70828  19.537   8.134   9.188
17933W        W70829  32.490  28.452   9.375
17934W        W70830  15.088  24.499   9.730
17935W        W70831   9.682   1.726   9.632
17936W        W70832  24.300   1.950   8.555
17937W        W70833   6.277  32.030   8.968
17938W        W70834  17.391  28.579   3.443
17939W        W70835  24.704  15.786   1.075
17940W        W70836  25.268  32.594   2.246
17941W        W70837  33.434  17.408   1.836
17942W        W70838   4.019   2.389   2.407
17943W        W70839   2.071  28.838   2.891
17944W        W70840   1.575  30.323   0.259
17945W        W70841  20.434  34.377   9.236
17946W        W70842   1.525  34.823   7.290
17947W        W70843   9.322  28.609   3.095
17948W        W70844   9.797  35.892   8.562
17949W        W70845   3.935  28.058   8.180
17950W        W70846  17.307  17.098   0.676
17951W        W70847  23.689  35.247   1.072
17952W        W70848  26.374   8.322   9.147
17953W        W70849   1.554  10.074   0.149
17954W        W70850  32.170  11.720   1.451
17955W        W70851  18.867  16.675   0.039
17956W        W70852  31.369  29.916   8.698
17957W        W70853  13.167  29.464   1.530
17958W        W70854  15.448   6.245   3.754
17959W        W70855  13.446   8.376   9.922
17960W        W70856   9.682   5.655   0.925
17961W        W70857   6.848  28.506   2.311
17962W        W70858   3.255   9.551   8.207
17963W        W70859  35.118   4.241   2.178
17964W        W70860  14.942  16.707   1.768
17965W        W70861  13.805  35.488   8.395
17966W        W70862   4.012  23.730   8.945
17967W        W70863  16.086  30.804   2.745
17968W        W70864  35.441  23.384   9.618
17969W        W70865   3.671  25.988   0.924
17970W        W70866  15.555  24.080   0.462
17971W        W70867  11.408   6.369   7.528
17972W        W70868   4.163  25.860   7.807
17973W        W70869  24.006  16.900   1.830
17974W        W70870  24.345  34.099   0.655
17975W        W70871  34.745  22.742   0.032
17976W        W70872  15.744  18.723   2.336
17977W        W70873  10.034  10.965   6.958
17978W        W70874  31.944  33.901   8.987
17979W        W70875  13.789  18.995   1.361
17980W        W70876  24.368  26.157   8.091
17981W        W70877  26.550  23.828   2.385
17982W        W70878   9.610  14.130   0.670
17983W        W70879  35.854  20.083   8.028
17984W        W70880  32.111  25.997  10.150
17985W        W70881  14.538   8.840   0.919
17986W        W70882  26.165  33.346   8.316
17987W        W70883  20.866  13.576   8.664
17988W        W70884  16.199  19.400   2.721
17989W        W70885  15.987  30.678   0.042
17990W        W70886   6.838  30.345   1.237
17991W        W70887  28.117  19.925   1.515
17992W        W70888  29.864  20.859   8.172
17993W        W70889  23.969   6.310   2.346
17994W        W70890   3.638  13.736   9.777
17995W        W70891  34.717  16.103   8.421
17996W        W70892  29.154   5.000   2.017
17997W        W70893  13.958   0.778   2.248
17998W        W70894  12.027  17.065   8.775
17999W        W70895  13.301  16.176   0.356
18000W        W70896   4.003  15.875   7.400
18001W        W70897   9.218   6.907   1.802
18002W        W70898  35.074   7.337   8.989
18003W        W70899  20.584  15.511   0.957
18004W        W70900  15.063  10.624   2.700
18005W        W70901  24.119   5.810   7.880
18006W        W70902  33.813   2.735   1.217
18007W        W70903  20.957  21.052   1.624
18008W        W70904  17.349   5.902   9.978
18009W        W70905   4.345  27.505   3.212
18010W        W70906  16.491  11.275   2.429
18011W        W70907  12.092  20.730   0.563
18012W        W70908  10.547  25.430   9.662
18013W        W70909   5.674  26.172   2.376
18014W        W70910  32.251   7.777   9.124
18015W        W70911  15.826  29.788   1.011
18016W        W70912  31.214  12.878  10.120
18017W        W70913  21.336  22.090   2.401
18018W        W70914   9.706  35.256   1.163
18019W        W70915  11.241  30.165   9.307
18020W        W70916  17.409  13.035   6.763
18021W        W70917   5.943  33.342   0.156
18022W        W70918   7.543  10.936   9.251
18023W        W70919   5.823   9.993   2.494
18024W        W70920  12.213  16.437   0.347
18025W        W70921   7.782  28.160   2.807
18026W        W70922  28.278  35.928   0.697
18027W        W70923  18.371  15.900  10.070
18028W        W70924  21.401  19.608   0.445
18029W        W70925  16.827   0.514   9.360
18030W        W70926  18.306  14.972   0.771
18031W        W70927   7.161  23.771   3.408
18032W        W70928  15.750  20.541   8.707
18033W        W70929  20.265  35.851   8.468
18034W        W70930  13.691   4.198  10.019
18035W        W70931  17.875   9.573   2.006
18036W        W70932   4.135  21.713   2.381
18037W        W70933  11.218  30.110   7.864
18038W        W70934  25.507   4.710   7.454
18039W        W70935   7.318  15.484   1.416
18040W        W70936   8.430  21.675   2.563
18041W        W70937  32.313   5.008   8.804
18042W        W70938   3.265   1.545   9.488
18043W        W70939   4.913   3.136   0.837
18044W        W70940   2.060   2.987  10.173
18045W        W70941  12.640   5.194   3.527
18046W        W70942  18.414   6.848   1.799
18047W        W70943  28.119  13.462   0.195
18048W        W70944  23.731  19.394   0.479
18049W        W70945  22.307  29.798   1.451
18050W        W70946   5.872  12.413  10.025
18051W        W70947  26.946  27.162   1.683
18052W        W70948  35.611  23.826   0.238
18053W        W70949  27.827  32.123   2.188
18054W        W70950   1.267  32.390   0.464
18055W        W70951  28.647   7.200   8.823
18056W        W70952  15.332  11.673   2.410
18057W        W70953  23.783   5.329   2.510
18058W        W70954  27.397   8.006   2.577
18059W        W70955  34.603  19.291  10.139
18060W        W70956   0.776   1.141   7.074
18061W        W70957  33.795   7.047   2.359
18062W        W70958   2.105  24.693   2.658
18063W        W70959  33.920  10.126   0.051
18064W        W70960  30.142  22.862   1.414
18065W        W70961  25.312  13.668   8.427
18066W        W70962  10.139  31.322  10.118
18067W        W70963  27.448  34.187   0.032
18068W        W70964  24.595   9.878   7.991
18069W        W70965  25.171   5.457   2.669
18070W        W70966  28.462   0.541   1.717
18071W        W70967  31.403  32.084   8.533
18072W        W70968  19.881  13.774   8.917
18073W        W70969   3.737  35.042   0.767
18074W        W70970  19.757   7.474   7.777
18075W        W70971  33.386  30.177   2.231
18076W        W70972  10.353  24.307   0.246
18077W        W70973   2.330  29.108   8.778
18078W        W70974  15.945  28.890   0.056
18079W        W70975   5.070  27.002   0.637
18080W        W70976  19.598  23.864   2.280
18081W        W70977  16.217  29.078   8.195
18082W        W70978   0.250  35.549   7.997
18083W        W70979  22.979  35.529   0.075
18084W        W70980  23.820   5.807   2.477
18085W        W70981   6.216   9.781   3.575
18086W        W70982  12.575   8.466   7.626
18087W        W70983  26.301  24.048   9.791
18088W        W70984  12.322  33.718   1.599
18089W        W70985  30.532   2.669   3.461
18090W        W70986  26.877  27.267   7.148
18091W        W70987  26.053   7.706   0.980
18092W        W70988  11.377  31.681   2.179
18093W        W70989  29.244   0.230   8.722
18094W        W70990  25.246  16.372   1.088
18095W        W70991   2.641   5.993   1.924
18096W        W70992  28.193   1.027   8.494
18097W        W70993  13.113   5.091   8.604
18098W        W70994  34.775   1.396   7.803
18099W        W70995  14.430  11.350   1.821
18100W        W70996   2.146   7.918   1.792
18101W        W70997  28.335  16.671   9.129
18102W        W70998  22.697   4.249   8.806
18103W        W70999  26.955  24.088   2.612
18104W        W71000   7.691  16.546   0.168
18105W        W71001  14.081  32.189   1.575
18106W        W71002   9.986  17.370   9.782
18107W        W71003  31.120  27.725   8.330
18108W        W71004  14.155  32.947   1.835
18109W        W71005  10.261  14.377   8.637
18110W        W71006   0.262  27.996   8.072
18111W        W71007  17.356   9.646   8.955
18112W        W71008  29.248   3.399   9.784
18113W        W71009  35.822  18.925  10.019
18114W        W71010  33.936   1.872   0.139
18115W        W71011  20.757   1.696   2.332
18116W        W71012  23.926  33.422   7.893
18117W        W71013  30.869  22.079   9.167
18118W        W71014   4.614   9.426   3.991
18119W        W71015  20.198  18.961   3.550
18120W        W71016  11.638   7.417   8.718
18121W        W71017  21.194  10.167   3.176
18122W        W71018  10.070  14.668   3.761
18123W        W71019  33.844  29.249   1.919
18124W        W71020  34.879  15.770   2.796
18125W        W71021  15.909   7.777   0.755
18126W        W71022  11.286  25.096   0.147
18127W        W71023  12.058  12.908   9.867
18128W        W71024  32.908  28.210   7.733
18129W        W71025  24.526  17.468   7.982
18130W        W71026   7.839   1.515   2.429
18131W        W71027  34.224   1.417   0.062
18132W        W71028  16.180  33.982   8.933
18133W        W71029  27.747  18.637   1.865
18134W        W71030  14.474  14.406   8.042
18135W        W71031  33.029  24.143   9.953
18136W        W71032  28.360  31.736   1.021
18137W        W71033  35.745   4.767   9.832
18138W        W71034  19.955  30.284  10.060
18139W        W71035  32.371   2.972   2.490
18140W        W71036  33.370  14.065   0.541
18141W        W71037  12.525  15.535   3.686
18142W        W71038  31.326  11.178   1.995
18143W        W71039   9.009  31.901   1.256
18144W        W71040  21.552  22.806   9.071
18145W        W71041   8.242  12.427   1.195
18146W        W71042   5.087  28.094   8.573
18147W        W71043  27.911  31.927   9.671
18148W        W71044  31.745  21.371   0.710
18149W        W71045   4.961   0.221   0.696
18150W        W71046  14.429   0.241   9.883
18151W        W71047  14.154   8.191   1.993
18152W        W71048   0.712  14.214   1.715
18153W        W71049  15.599  27.845   0.242
18154W        W71050  15.869  14.125   0.230
18155W        W71051  34.744  31.531   9.855
18156W        W71052  22.050  29.168   0.915
18157W        W71053  10.819   5.285   9.863
18158W        W71054  15.832  26.428   8.607
18159W        W71055  34.874  13.727   3.549
18160W        W71056   9.454  34.262   1.277
18161W        W71057  29.522   6.692   1.406
18162W        W71058  17.656  29.488   9.767
18163W        W71059   1.184  18.633   1.652
18164W        W71060  21.214   8.962   9.677
18165W        W71061  17.339   9.380   9.426
18166W        W71062  31.342  11.983   2.495
18167W        W71063   0.702   5.586   0.271
18168W        W71064  10.678  31.419   9.585
18169W        W71065  30.557  17.643   3.542
18170W        W71066  21.222   7.324   8.372
18171W        W71067   3.408   4.082   2.437
18172W        W71068   9.222   4.671   8.311
18173W        W71069  22.824   2.677   0.793
18174W        W71070  28.066  22.880   3.492
18175W        W71071  19.803  18.481   7.797
18176W        W71072   7.831   3.483   3.024
18177W        W71073  13.313   2.506   8.078
18178W        W71074  20.179  26.652   3.034
18179W        W71075  35.891  10.833   2.452
18180W        W71076  31.207  20.029   8.137
18181W        W71077  17.451   1.202   9.675
18182W        W71078  21.464  27.331   0.917
18183W        W71079  28.532   6.635   3.119
18184W        W71080   2.706  16.819   1.970
18185W        W71081  18.529   6.246   8.174
18186W        W71082  26.833  31.093   2.726
18187W        W71083   8.927  19.872   0.733
18188W        W71084  19.110  29.354   0.579
18189W        W71085  19.934  18.933  10.167
18190W        W71086  34.896  12.821   1.839
18191W        W71087  20.241  34.232   8.505
18192W        W71088  35.026  10.519   8.255
18193W        W71089  13.795  12.641  10.198
18194W        W71090  14.837  23.663   8.935
18195W        W71091  32.749  21.964   7.911
18196W        W71092   3.066  34.519  10.154
18197W        W71093  33.878  31.342   0.543
18198W        W71094  24.406  17.222   3.163
18199W        W71095   3.454   0.119   7.859
18200W        W71096  12.513   7.274   2.876
18201W        W71097   9.433  33.968   0.464
18202W        W71098  22.973  28.427   7.446
18203W        W71099   3.645  29.094   7.199
18204W        W71100  15.601  10.604   9.667
18205W        W71101  24.516  12.307   9.145
18206W        W71102  25.203  12.722   2.001
18207W        W71103   4.586  34.331   1.492
18208W        W71104  27.461   6.873   8.846
18209W        W71105   6.641  30.239   9.404
18210W        W71106  32.795  19.510   2.569
18211W        W71107   4.446  11.536   0.920
18212W        W71108  33.139   0.642   1.713
18213W        W71109  28.252   8.994   2.281
18214W        W71110  27.375  17.110   2.789
18215W        W71111   1.673   5.887   0.885
18216W        W71112  28.943   0.949   7.944
18217W        W71113  20.339   7.686   8.643
18218W        W71114  30.871  23.429   2.154
18219W        W71115   2.786   0.449   0.197
18220W        W71116  21.081  13.721   7.310
18221W        W71117  26.893   8.370   1.539
18222W        W71118  22.882  10.144   9.169
18223W        W71119  15.633  21.064   0.267
18224W        W71120  34.172  29.060  10.263
18225W        W71121  34.075  17.840   1.154
18226W        W71122  19.209  26.805   9.803
18227W        W71123  34.719  19.066   8.374
18228W        W71124  16.322   7.243   2.235
18229W        W71125  14.069  24.762   7.859
18230W        W71126   0.729  26.945   3.634
18231W        W71127  17.681  35.087   7.899
18232W        W71128   2.212  33.837   1.555
18233W        W71129  24.186   3.428   2.339
18234W        W71130  10.689  20.816   8.708
18235W        W71131   1.146  31.293   2.426
18236W        W71132  18.013  15.860   1.113
18237W        W71133  30.248  10.972   1.044
18238W        W71134  15.641  16.421   8.500
18239W        W71135   4.921  26.638   1.989
18240W        W71136   8.841  26.866   8.837
18241W        W71137  12.790  26.672   7.840
18242W        W71138  35.352   0.726   8.280
18243W        W71139  11.187   2.933   0.877
18244W        W71140  34.323  21.544   7.849
18245W        W71141  10.554  17.876   3.003
18246W        W71142   1.414  23.170   1.059
18247W        W71143  21.504   2.315   0.150
18248W        W71144   1.904   9.747   8.333
18249W        W71145  34.950   2.825   8.909
18250W        W71146  33.063  35.729   7.884
18251W        W71147  23.685  33.942   3.025
18252W        W71148  34.687   8.447   1.570
18253W        W71149  19.840  12.142   7.939
18254W        W71150   5.877  29.017   7.238
18255W        W71151  31.392  21.956   0.546
18256W        W71152  24.874  25.928   1.450
18257W        W71153  18.389  15.602   9.728
18258W        W71154  14.067   6.956   8.089
18259W        W71155  17.484   9.699   2.966
18260W        W71156  11.556   7.626   9.387
18261W        W71157  28.894   0.571   2.752
18262W        W71158  27.796  22.132   9.755
18263W        W71159  13.772  34.022   8.548
18264W        W71160  25.810   2.523   2.325
18265W        W71161  15.859  19.314   8.258
18266W        W71162   8.998  28.350   2.793
18267W        W71163  12.926  32.487   0.706
18268W        W71164  14.505  31.381   7.993
18269W        W71165  29.329  27.928  10.094
18270W        W71166   9.151   0.047   7.988
18271W        W71167   7.168  11.739   1.821
18272W        W71168  33.965  19.705   1.877
18273W        W71169   8.517  16.998   7.854
18274W        W71170  17.785  18.768   1.947
18275W        W71171  12.151  13.695   0.575
18276W        W71172  32.858   9.645   0.318
18277W        W71173  15.703   8.996   8.792
18278W        W71174  34.690   3.610   2.802
18279W        W71175  34.848  33.112   3.290
18280W        W71176   9.027  28.239   7.038
18281W        W71177  26.568   3.335   2.352
18282W        W71178  29.144  22.811   0.630
18283W        W71179  13.382  15.074   3.692
18284W        W71180  32.207  10.970   1.114
18285W        W71181  16.452  19.715   3.178
18286W        W71182  31.797  25.932   0.463
18287W        W71183   5.687  29.337   8.846
18288W        W71184  21.845  18.261   3.846
18289W        W71185  29.117   1.373   1.417
18290W        W71186  29.362   7.347   0.910
18291W        W71187  25.851  27.764   1.920
18292W        W71188  12.813  28.023   1.968
18293W        W71189  24.683  17.549   9.297
18294W        W71190  35.139  11.130   8.967
18295W        W71191   7.244   1.700   9.912
18296W        W71192  23.329  18.722   8.682
18297W        W71193  10.076  25.636   7.229
18298W        W71194  17.773  33.845   9.985
18299W        W71195  24.261   7.362   9.808
18300W        W71196  16.012   4.335   9.617
18301W        W71197   2.915   9.443   0.195
18302W        W71198  18.470   1.883   8.184
18303W        W71199  21.522  23.097   1.040
18304W        W71200   1.791   7.578   9.485
18305W        W71201   9.864  30.040   1.337
18306W        W71202  27.272  22.982   8.891
18307W        W71203   3.808  17.115   9.996
18308W        W71204   8.135  20.991   0.992
18309W        W71205  18.967   5.224   2.141
18310W        W71206   6.712   2.575   1.765
18311W        W71207   6.256   8.946   2.775
18312W        W71208  30.563  32.574   9.913
18313W        W71209   2.623  23.846   1.456
18314W        W71210  27.455  15.080   8.093
18315W        W71211   6.506  15.149   8.846
18316W        W71212   7.115  35.049   7.618
18317W        W71213   8.557  14.159   7.743
18318W        W71214   1.376   5.693  10.301
18319W        W71215  18.825  21.309   0.314
18320W        W71216  31.989   7.844  10.242
18321W        W71217  27.387  14.161  10.126
18322W        W71218   5.875  11.477   2.696
18323W        W71219  33.090   2.521   8.843
18324W        W71220   6.647  24.012   8.330
18325W        W71221   8.468   3.980   0.060
18326W        W71222  32.474   7.771   3.230
18327W        W71223  12.884  10.773   1.096
18328W        W71224  28.106  28.068   1.980
18329W        W71225  32.872  26.057   1.865
18330W        W71226  11.836  17.999   2.675
18331W        W71227  29.910  12.724   2.566
18332W        W71228  12.110  34.652   9.405
18333W        W71229  33.562  17.102  10.088
18334W        W71230   7.191   9.280   0.260
18335W        W71231   0.556   0.355   9.714
18336W        W71232   4.498  12.972   1.292
18337W        W71233  24.327  29.459   2.226
18338W        W71234  27.358  24.462   8.426
18339W        W71235  20.459   0.005   0.751
18340W        W71236  26.635   5.032   8.091
18341W        W71237  34.395  11.863   2.175
18342W        W71238  10.939  31.595   0.583
18343W        W71239   9.768  30.093   7.925
18344W        W71240  35.375  15.749   1.662
18345W        W71241  31.882   6.123   0.874
18346W        W71242  17.820  15.555   0.609
18347W        W71243  11.845   3.178   9.859
18348W        W71244  22.441  11.425   1.121
18349W        W71245  10.153   9.557   0.750
18350W        W71246   2.013  35.580   2.461
18351W        W71247   7.922  10.330   2.820
18352W        W71248   6.026  25.184   2.313
18353W        W71249  22.879  19.197   2.427
18354W        W71250  30.953  26.429   0.393
18355W        W71251  30.650  33.450   7.185
18356W        W71252   4.611  21.064   7.531
18357W        W71253  17.919  19.937   9.760
18358W        W71254  33.172  34.935   7.780
18359W        W71255  35.867  19.952   3.831
18360W        W71256   2.582  11.015   0.743
18361W        W71257  15.459  10.725   2.246
18362W        W71258  29.684  12.495   9.504
18363W        W71259  25.142  34.292   3.475
18364W        W71260  29.198   5.542   3.030
18365W        W71261  15.455  25.436   3.215
18366W        W71262  12.037   0.229  10.328
18367W        W71263  27.361  27.397   9.518
18368W        W71264  15.004  21.519   3.546
18369W        W71265  24.736  35.616   8.892
18370W        W71266  26.449  13.158   2.378
18371W        W71267  26.958  35.763  10.114
18372W        W71268  18.661   6.585   2.141
18373W        W71269  20.190  15.992   2.042
18374W        W71270  20.319   5.767   1.944
18375W        W71271  35.840  16.845   8.728
18376W        W71272  20.925  28.176   7.933
18377W        W71273  32.654   5.885   9.645
18378W        W71274  18.872   4.862   1.305
18379W        W71275  30.116   7.209   2.026
18380W        W71276  14.574  32.270   1.653
18381W        W71277   5.076  25.941   8.559
18382W        W71278  32.403  18.561   2.019
18383W        W71279  19.447  10.279   2.926
18384W        W71280  10.008  33.368   0.696
18385W        W71281  31.112   9.600   8.464
18386W        W71282  13.901  25.214   8.715
18387W        W71283   5.565  19.793   8.568
18388W        W71284  30.573  16.220   3.154
18389W        W71285  19.607   7.894   8.423
18390W        W71286  17.710   4.010   0.100
18391W        W71287  18.451  10.466   9.736
18392W        W71288  25.995  34.730   0.438
18393W        W71289  18.473  22.452   0.301
18394W        W71290  15.433  12.609   2.319
18395W        W71291   2.385  27.058   8.432
18396W        W71292   0.745  23.691   0.936
18397W        W71293  17.747   7.390   1.114
18398W        W71294   0.049   6.126  10.212
18399W        W71295  17.601  21.507   3.907
18400W        W71296   5.315   7.463   0.496
18401W        W71297  18.407   1.406   7.585
18402W        W71298   3.735   7.506   2.961
18403W        W71299   5.537  27.809   1.742
18404W        W71300  28.199  25.856   8.637
18405W        W71301   5.542  33.428   1.357
18406W        W71302  12.403  26.817   1.328
18407W        W71303  14.848  35.332  10.030
18408W        W71304  32.610  10.158   2.062
18409W        W71305   2.973   8.565  10.329
18410W        W71306   1.182   0.544   0.474
18411W        W71307  23.276  29.666  10.266
18412W        W71308   0.174  12.453   3.319
18413W        W71309  21.155  29.852   0.962
18414W        W71310   2.587  34.633   9.151
18415W        W71311   2.311  32.234   1.690
18416W        W71312  23.695  35.030   0.004
18417W        W71313  22.670   6.855   0.412
18418W        W71314   8.002   9.227   1.272
18419W        W71315   0.200  20.969   2.964
18420W        W71316  20.095  28.490   1.823
18421W        W71317   5.031   8.186   2.685
18422W        W71318   6.754  35.138   7.991
18423W        W71319  27.894  15.859   1.696
18424W        W71320  25.393  29.448  10.208
18425W        W71321   8.211   5.444   1.598
18426W        W71322  31.772  26.783   3.025
18427W        W71323  27.105  18.603   8.303
18428W        W71324   0.616  11.198   1.950
18429W        W71325  13.623   7.103   2.001
18430W        W71326  29.665   6.455   9.019
18431W        W71327  24.330  19.570   2.075
18432W        W71328   3.803  16.134   8.270
18433W        W71329  34.065  31.710   9.371
18434W        W71330  28.765   1.909   0.004
18435W        W71331  15.480  34.714   1.851
18436W        W71332  19.499  23.680   1.802
18437W        W71333   4.868   2.288   0.306
18438W        W71334  22.989  15.110   1.509
18439W        W71335   6.869  15.507   9.566
18440W        W71336  11.894  35.555   9.590
18441W        W71337  20.974  17.540   0.993
18442W        W71338  24.422  10.845   3.209
18443W        W71339  16.117  12.708   1.120
18444W        W71340  16.178  20.689   1.759
18445W        W71341   3.638   3.151   1.109
18446W        W71342  14.996  16.799   9.781
18447W        W71343  18.857  18.601   1.188
18448W        W71344  27.201   8.845   1.611
18449W        W71345  33.357  21.522   1.220
18450W        W71346  16.097  19.752   0.252
18451W        W71347  31.340  14.159   2.622
18452W        W71348   4.893  17.641   9.009
18453W        W71349  14.153  32.463   2.123
18454W        W71350  34.869  11.351   9.412
18455W        W71351  25.995  14.038   9.110
18456W        W71352  22.561   9.386   8.043
18457W        W71353  19.199   4.754   0.291
18458W        W71354   1.665  26.740   3.336
18459W        W71355  33.359  10.749   3.118
18460W        W71356   7.439  13.584   1.602
18461W        W71357   1.368  25.882   9.911
18462W        W71358  23.967  29.125   0.483
18463W        W71359   8.008  16.700   2.011
18464W        W71360  21.179   8.695   0.802
18465W        W71361  30.771  12.915   2.607
18466W        W71362   1.875  11.398   1.398
18467W        W71363  30.368  31.614   2.298
18468W        W71364  21.369  19.936   3.557
18469W        W71365  15.817  26.426   7.697
18470W        W71366   4.720   5.589   2.658
18471W        W71367   3.103   2.587   8.101
18472W        W71368  19.660  15.373   9.230
18473W        W71369   5.353  12.039   2.877
18474W        W71370   4.462  30.534   9.476
18475W        W71371  31.887  24.146   1.286
18476W        W71372  35.488   3.961   8.610
18477W        W71373  24.258  35.204   8.037
18478W        W71374  22.425  19.052   2.323
18479W        W71375  13.909  15.882   0.884
18480W        W71376  26.517   6.153   1.358
18481W        W71377  15.121  33.352  10.250
18482W        W71378  24.317  19.401   0.293
18483W        W71379  25.872   4.620   8.999
18484W        W71380  24.907   2.099   7.373
18485W        W71381   0.737  17.703  10.016
18486W        W71382  31.882   0.866   2.550
18487W        W71383  31.722  15.737   0.199
18488W        W71384   2.062  33.479  10.151
18489W        W71385  10.433  32.034   9.240
18490W        W71386  16.994  29.888   9.226
18491W        W71387  30.901  35.907   9.925
18492W        W71388  26.608  33.429   1.748
18493W        W71389  29.888  20.235   9.769
18494W        W71390  12.865  31.994   1.851
18495W        W71391   1.200  18.803   9.225
18496W        W71392  19.750  25.903   8.538
18497W        W71393  28.943  16.902  10.328
18498W        W71394  12.434   8.039   0.464
18499W        W71395  21.905   7.870   0.748
18500W        W71396  17.096  21.570   9.341
18501W        W71397  33.373  26.146   1.994
18502W        W71398  24.805  24.501   8.857
18503W        W71399   2.214   5.488   2.373
18504W        W71400   2.623   5.482   1.944
18505W        W71401   7.774  31.940  10.050
18506W        W71402  14.403  24.799   1.994
18507W        W71403  11.958   8.210   0.444
18508W        W71404  18.883  31.782   7.959
18509W        W71405   9.092  13.520   9.189
18510W        W71406  14.133  25.003  10.162
18511W        W71407  23.350  13.626   9.706
18512W        W71408  25.075  26.613   1.999
18513W        W71409  27.187   7.238   3.754
18514W        W71410  19.372   7.304   8.020
18515W        W71411  24.700  11.475   0.655
18516W        W71412  21.845   6.432   0.261
18517W        W71413  11.918  34.280  10.133
18518W        W71414  17.677  23.451   2.797
18519W        W71415  33.609  26.355   0.544
18520W        W71416   8.779   3.621   7.325
18521W        W71417  24.812  32.862   2.243
18522W        W71418  26.243  22.555   7.840
18523W        W71419   1.976  33.953   3.530
18524W        W71420  20.009  22.326  10.041
18525W        W71421   1.584  33.378   9.123
18526W        W71422  12.900   6.539   8.739
18527W        W71423   9.542  21.508   8.674
18528W        W71424  25.484  26.953   1.635
18529W        W71425   5.716  35.691   8.812
18530W        W71426  32.068  10.464   0.890
18531W        W71427   4.380  13.551   0.686
18532W        W71428  26.581  27.341  10.100
18533W        W71429  17.930  22.270   2.159
18534W        W71430  12.603  32.117   3.121
18535W        W71431   7.461   5.915   8.315
18536W        W71432  28.070  22.035   1.670
18537W        W71433   0.225   9.947   1.685
18538W        W71434  33.726  35.543   0.427
18539W        W71435  20.052   1.601   7.906
18540W        W71436  24.918  33.406   9.577
18541W        W71437  29.429  26.160   0.569
18542W        W71438   3.027  34.550   8.972
18543W        W71439  25.390  14.973   0.282
18544W        W71440  35.829  11.034   9.551
18545W        W71441  21.125  34.770   2.748
18546W        W71442   3.279   8.748   9.931
18547W        W71443  34.835  30.935   9.281
18548W        W71444  11.171  17.256  10.120
18549W        W71445  31.359  11.765   9.019
18550W        W71446  27.047  22.744  10.013
18551W        W71447  14.116  24.384   1.809
18552W        W71448   3.905  13.627   0.855
18553W        W71449   1.489  25.891   3.789
18554W        W71450  25.661   1.935   0.611
18555W        W71451   1.925  33.335   9.660
18556W        W71452  28.843  35.391   1.813
18557W        W71453  27.782  28.802   7.463
18558W        W71454   3.448   3.971   8.643
18559W        W71455   6.868  29.045   1.329
18560W        W71456   5.624   1.641   1.968
18561W        W71457  23.202  31.676   2.023
18562W        W71458   7.056  30.826   8.740
18563W        W71459  31.611  29.247   9.390
18564W        W71460   0.994   6.468   8.105
18565W        W71461   4.869  14.333   0.956
18566W        W71462  25.447  18.143   9.343
18567W        W71463  24.379  21.542   8.141
18568W        W71464  19.928  24.001   7.985
18569W        W71465  34.300  26.240   0.014
18570W        W71466  12.601  27.575   7.795
18571W        W71467  29.179   9.424   2.783
18572W        W71468  12.849  15.380   9.191
18573W        W71469  33.144  22.345   2.923
18574W        W71470   3.965  19.373   2.473
18575W        W71471  24.024  10.239   0.299
18576W        W71472  10.357  28.090   1.089
18577W        W71473  21.024  22.806   8.073
18578W        W71474  23.930  14.552   8.080
18579W        W71475  11.508  29.232   9.869
18580W        W71476   3.543   5.742   2.991
18581W        W71477  13.524   7.719   7.292
18582W        W71478  21.464  15.496   9.876
18583W        W71479   3.665  35.080   8.282
18584W        W71480  31.978  28.965   0.619
18585W        W71481  17.027   3.292   3.950
18586W        W71482  30.274  22.895   9.971
18587W        W71483  22.282   1.541   1.541
18588W        W71484  25.533  31.495   8.302
18589W        W71485  31.626  16.291   2.364
18590W        W71486  23.258  28.132   2.658
18591W        W71487   3.722   4.487  10.050
18592W        W71488  18.833  33.492   1.932
18593W        W71489   8.387  16.480   7.965
18594W        W71490  26.689   1.471   9.558
18595W        W71491   7.931  23.034   1.550
18596W        W71492  23.794  30.414   7.511
18597W        W71493  22.675  29.012   8.067
18598W        W71494  23.376  27.775   0.367
18599W        W71495   9.495  16.333   1.599
18600W        W71496  25.805  22.298   1.393
18601W        W71497  24.956  23.654   9.301
18602W        W71498   4.904  15.435   2.989
18603W        W71499  23.402  32.524   9.307
18604W        W71500  16.732  10.019   1.222
18605W        W71501  31.826  19.817   0.838
18606W        W71502  30.788  16.481   8.947
18607W        W71503  20.464   9.469   0.053
18608W        W71504  28.670  11.554   2.190
18609W        W71505   2.138  17.524   2.150
18610W        W71506  12.927  28.541   7.760
18611W        W71507  35.868  30.573   0.670
18612W        W71508  17.261  11.711   2.211
18613W        W71509  15.113  32.548   7.245
18614W        W71510  11.180  27.016   0.313
18615W        W71511  10.474   5.846   8.649
18616W        W71512  21.925  10.403   2.489
18617W        W71513   0.854  12.420  10.020
18618W        W71514  13.353  12.118   9.845
18619W        W71515  10.162   2.140   9.116
18620W        W71516  34.359  19.307   9.584
18621W        W71517  34.650  10.958   7.437
18622W        W71518  12.044  22.949   1.911
18623W        W71519   8.433  29.556   2.743
18624W        W71520  29.624  16.789   3.299
18625W        W71521  23.020  15.784   7.961
18626W        W71522  35.993  25.901   0.992
18627W        W71523   5.126  21.678   0.288
18628W        W71524  30.269   8.794   0.177
18629W        W71525  16.471  17.638   8.979
18630W        W71526   6.349  24.687   9.114
18631W        W71527  26.112  26.621   8.190
18632W        W71528  32.507   3.583   9.793
18633W        W71529   9.640   4.708   2.779
18634W        W71530  20.017   3.911   2.195
18635W        W71531  33.405  20.857   2.941
18636W        W71532  11.093  20.994   0.550
18637W        W71533  22.783  28.899   1.180
18638W        W71534  25.593  11.987   2.886
18639W        W71535   2.340   0.314   8.601
18640W        W71536   1.903   2.986   1.161
18641W        W71537   9.975  33.991   0.003
18642W        W71538  33.578   0.444   7.840
18643W        W71539   2.434  15.812   3.833
18644W        W71540  27.743   0.807   8.541
18645W        W71541  34.234  13.230   1.304
18646W        W71542   9.022  28.629   9.152
18647W        W71543  22.213  30.629   0.492
18648W        W71544  23.560   8.810   9.059
18649W        W71545  26.940   9.707   1.380
18650W        W71546  23.831  34.145   0.498
18651W        W71547   6.148  13.788   2.563
18652W        W71548  19.273  33.258   8.070
18653W        W71549   6.174  22.229   8.778
18654W        W71550  10.304   3.921   0.592
18655W        W71551  15.883   1.857   3.227
18656W        W71552   0.299  17.953   3.807
18657W        W71553  12.023  13.748   7.585
18658W        W71554  18.063   5.763   8.757
18659W        W71555  20.259  32.036   0.833
18660W        W71556   5.002   6.659   7.377
18661W        W71557  23.967  12.648   8.914
18662W        W71558  35.133  35.034   8.337
18663W        W71559  12.557  21.926   1.159
18664W        W71560   3.047  16.336   9.830
18665W        W71561   3.508   6.344   1.341
18666W        W71562  21.172  19.486   3.644
18667W        W71563   1.347  34.319   8.971
18668W        W71564  19.380   6.506   9.603
18669W        W71565  30.436  23.181   9.143
18670W        W71566  28.943  27.679   9.150
18671W        W71567  19.458   6.212  10.052
18672W        W71568  34.015  29.981   2.768
18673W        W71569   8.711  19.755   0.127
18674W        W71570  20.153  16.731   2.225
18675W        W71571  28.605   0.560   2.234
18676W        W71572  20.451  10.216   3.761
18677W        W71573  16.227  22.568   8.267
18678W        W71574   1.023   5.798   3.262
18679W        W71575  18.881  21.970   8.285
18680W        W71576  27.632   8.837   9.227
18681W        W71577  26.068  13.555   2.728
18682W        W71578  26.934  14.698   0.767
18683W        W71579  17.514   6.861   3.734
18684W        W71580  16.554   2.768   8.972
18685W        W71581   3.711  24.077   7.449
18686W        W71582   2.925   1.387   9.824
18687W        W71583  24.689  28.954   2.083
18688W        W71584   9.239  10.867   7.983
18689W        W71585   9.321  35.954   0.630
18690W        W71586  12.408  25.920   9.470
18691W        W71587   8.601  32.823   1.014
18692W        W71588  20.785   4.853   0.026
18693W        W71589  30.171   6.363   2.645
18694W        W71590  33.869   5.056   1.190
18695W        W71591   1.126  23.956   9.748
18696W        W71592  16.701  20.825   8.130
18697W        W71593  26.343   9.906   3.639
18698W        W71594  15.722  13.202   9.895
18699W        W71595   4.722  18.969   0.203
18700W        W71596  20.192  17.706  10.259
18701W        W71597   2.345   7.229   7.594
18702W        W71598   3.000   1.901   0.265
18703W        W71599  23.991  10.946   7.544
18704W        W71600  24.233  28.938   1.828
18705W        W71601  19.972   2.629   1.969
18706W        W71602  34.454  33.873   0.128
18707W        W71603  23.502  26.026  10.076
18708W        W71604  30.506  24.869   8.738
18709W        W71605   9.338  18.808   8.045
18710W        W71606  34.533   6.474   0.102
18711W        W71607  23.479  29.597   1.690
18712W        W71608  29.768  25.785   7.109
18713W        W71609  28.760   7.251   1.872
18714W        W71610  31.507  11.800   7.897
18715W        W71611   8.959  24.593   1.820
18716W        W71612  34.404  10.243   3.166
18717W        W71613  30.788   6.041   1.832
18718W        W71614  30.387  19.488   9.487
18719W        W71615   8.474   0.478   9.582
18720W        W71616   8.920   8.125   9.547
18721W        W71617   1.767  35.906   2.761
18722W        W71618  14.156  30.944   2.676
18723W        W71619  29.506   6.048   1.388
18724W        W71620   6.522   1.921   0.958
18725W        W71621   5.803   8.011   7.755
18726W        W71622  25.309  34.166   9.535
18727W        W71623  16.200  34.168   8.437
18728W        W71624   6.445  11.353   0.449
18729W        W71625  19.499  31.383   8.058
18730W        W71626  29.046  29.065   1.750
18731W        W71627  25.818  15.460   2.085
18732W        W71628   0.163  17.336   8.762
18733W        W71629  34.112  25.520   7.760
18734W        W71630  18.138   8.526   2.772
18735W        W71631  10.099  30.009   1.726
18736W        W71632   4.534  18.120  10.071
18737W        W71633  34.535  13.497   0.345
18738W        W71634  13.044  13.942   7.858
18739W        W71635  19.282  13.488   0.397
18740W        W71636  11.930  19.466   8.198
18741W        W71637  21.028  12.559   9.779
18742W        W71638  13.438  23.557   9.525
18743W        W71639  23.598  12.059   0.752
18744W        W71640  20.843  17.679   9.840
18745W        W71641   6.154  10.547   3.234
18746W        W71642  30.939  22.016   7.476
18747W        W71643  10.863  25.068   9.503
18748W        W71644   6.435   5.721   7.470
18749W        W71645  21.848   6.432   0.729
18750W        W71646  14.556  17.919  10.048
18751W        W71647  14.469  35.346  10.315
18752W        W71648  15.620  14.217   2.787
18753W        W71649   4.176  25.647   8.663
18754W        W71650  29.916  20.041   1.099
18755W        W71651  21.964  31.410   1.718
18756W        W71652  32.686  12.190   8.048
18757W        W71653  11.542  13.723   2.662
18758W        W71654  23.994  24.883   1.909
18759W        W71655   6.211  23.860   8.130
18760W        W71656  20.865  34.480   3.042
18761W        W71657   3.277   4.288   1.389
18762W        W71658  12.661  33.643   2.434
18763W        W71659  23.927   4.857   1.870
18764W        W71660   0.255  31.529   8.548
18765W        W71661   6.077  33.613   8.277
18766W        W71662  30.681  25.768   0.011
18767W        W71663   6.620  35.384   0.470
18768W        W71664   0.328   3.690   0.037
18769W        W71665   5.678  10.270   2.040
18770W        W71666  12.317  20.030   0.832
18771W        W71667  23.665  10.883  10.212
18772W        W71668  35.383   8.070  10.131
18773W        W71669  30.937  17.253   2.399
18774W        W71670   0.878  30.767   1.394
18775W        W71671  17.168   6.418   9.127
18776W        W71672  34.335  32.221   2.121
18777W        W71673  21.925   6.834   2.652
18778W        W71674   9.573   7.746   8.698
18779W        W71675  25.065  30.315   2.696
18780W        W71676  25.629  15.310   7.587
18781W        W71677  31.193   6.558   0.265
18782W        W71678  18.156  29.856   1.516
18783W        W71679  13.774   3.236   9.754
18784W        W71680  31.898   1.468   7.839
18785W        W71681   8.637  27.141   2.766
18786W        W71682  10.212  31.093   3.190
18787W        W71683  19.180  31.256   0.619
18788W        W71684  19.941  18.298   8.833
18789W        W71685  25.903  32.800   0.181
18790W        W71686  28.336  27.330   0.915
18791W        W71687  31.537  22.629   8.681
18792W        W71688  33.178  30.460   8.062
18793W        W71689   4.595  24.496   9.168
18794W        W71690  19.158  16.001   0.515
18795W        W71691  26.845  23.903   1.415
18796W        W71692  10.583  35.017   0.829
18797W        W71693  33.809   8.438   1.726
18798W        W71694  23.243   8.213   9.786
18799W        W71695  16.295   2.964   7.497
18800W        W71696   0.922  32.340   1.451
18801W        W71697   5.097  27.004   9.912
18802W        W71698  29.730  16.029   1.016
18803W        W71699  23.613  10.026   0.495
18804W        W71700  21.772   1.320   2.303
18805W        W71701  14.740   8.818   1.515
18806W        W71702   8.709  27.457   2.095
18807W        W71703  28.861   2.185   7.297
18808W        W71704  18.200  26.115   0.392
18809W        W71705  16.826   6.446   3.330
18810W        W71706  28.203  31.976   2.530
18811W        W71707  19.588  30.054   2.263
18812W        W71708   9.335  10.727   8.552
18813W        W71709  26.650   3.979   1.816
18814W        W71710  32.531  24.767   8.589
18815W        W71711  25.500   3.470   1.684
18816W        W71712  34.281  16.332   2.337
18817W        W71713   6.295  31.008   2.382
18818W        W71714  20.778   2.471   8.735
18819W        W71715  23.661  21.760  10.196
18820W        W71716   9.554   0.101   3.291
18821W        W71717   9.941  35.040   9.036
18822W        W71718   8.652  13.522   0.262
18823W        W71719   7.245  30.744   1.321
18824W        W71720   3.546   5.985   9.123
18825W        W71721   4.898  33.037   3.335
18826W        W71722   2.022  22.865  10.108
18827W        W71723  28.929  21.158   1.119
18828W        W71724  31.084   7.318   9.882
18829W        W71725  27.875   8.580   9.618
18830W        W71726  13.504   5.445   9.296
18831W        W71727  17.618  34.215   8.088
18832W        W71728   3.329  32.638   8.771
18833W        W71729  29.353   1.857   0.259
18834W        W71730  22.590  35.977   7.909
18835W        W71731  22.329  21.543   8.839
18836W        W71732  18.413  11.093   0.866
18837W        W71733  31.834  13.465   9.507
18838W        W71734   6.524  27.608   1.847
18839W        W71735  34.495  24.805   0.865
18840W        W71736  23.487  10.619   3.131
18841W        W71737  26.003  31.642   8.685
18842W        W71738  10.173   9.879   2.108
18843W        W71739  23.241  35.784   1.893
18844W        W71740  13.849  22.091   9.402
18845W        W71741   6.804  11.576   2.106
18846W        W71742  22.025  31.549   2.217
18847W        W71743   9.954  30.469   8.185
18848W        W71744   5.779  26.435   9.653
18849W        W71745  19.812  13.736   0.741
18850W        W71746   7.746   1.413   3.824
18851W        W71747  31.653   4.140   0.120
18852W        W71748  26.690  21.029   9.594
18853W        W71749  31.450   8.393   0.499
18854W        W71750  25.405  12.933   2.932
18855W        W71751  17.126  26.598   1.435
18856W        W71752   4.773   8.600   8.393
18857W        W71753  31.471   7.210   2.542
18858W        W71754   6.048  17.306   0.330
18859W        W71755  18.433  18.727   0.900
18860W        W71756  23.766  15.614   0.210
18861W        W71757  21.014   2.317   8.254
18862W        W71758  18.508  20.359   3.708
18863W        W71759  30.191  18.803   8.840
18864W        W71760  23.321  35.521   8.010
18865W        W71761  27.301  13.700   0.500
18866W        W71762  12.244  28.045   2.119
18867W        W71763  17.901   4.812   8.433
18868W        W71764  15.780  31.245   2.986
18869W        W71765  21.046  19.375   9.381
18870W        W71766  12.319   7.466   0.951
18871W        W71767  35.383  30.533   1.033
18872W        W71768   0.526  32.510   8.013
18873W        W71769  17.552  20.397   4.080
18874W        W71770  25.026  15.877   1.848
18875W        W71771   8.040  31.620   1.441
18876W        W71772  27.021   4.509   3.213
18877W        W71773  35.036  10.126   1.085
18878W        W71774   5.632   2.061   8.687
18879W        W71775  30.900  11.402   3.410
18880W        W71776  10.819  33.385   1.842
18881W        W71777  26.766   3.218   1.526
18882W        W71778  11.568  31.253   8.855
18883W        W71779  22.054   6.318   2.914
18884W        W71780  24.646  30.512   2.878
18885W        W71781   9.938  10.355   7.556
18886W        W71782   9.643  13.609   2.934
18887W        W71783   0.473  23.718   0.038
18888W        W71784   5.957  31.756   3.510
18889W        W71785   1.346  18.627   2.228
18890W        W71786   7.197  12.342   2.157
18891W        W71787  20.440  25.212   2.734
18892W        W71788   9.685  22.859   9.707
18893W        W71789  11.786  11.456   9.556
18894W        W71790   6.417  34.730   8.542
18895W        W71791  26.817  29.608   2.144
18896W        W71792  32.628   2.141   7.805
18897W        W71793  33.929  21.287   9.628
18898W        W71794  35.976  12.004   9.622
18899W        W71795   2.431  26.376   2.817
18900W        W71796  24.164  35.612   9.611
18901W        W71797   2.824  15.787   0.926
18902W        W71798  11.985  26.121   1.241
18903W        W71799  14.525   2.515   9.759
18904W        W71800  23.196   5.478   1.747
18905W        W71801  13.814  10.140  10.192
18906W        W71802   0.250   9.244   9.055
18907W        W71803   1.513   9.635   0.969
18908W        W71804   2.828  10.751   7.982
18909W        W71805  11.858  12.382   0.365
18910W        W71806  27.245   6.266   0.830
18911W        W71807  11.173  17.086   1.894
18912W        W71808  30.754  16.936   0.054
18913W        W71809  27.436   0.900   2.601
18914W        W71810  17.975  29.273   7.955
18915W        W71811   5.042  16.135   1.670
18916W        W71812  21.039  27.656   8.778
18917W        W71813   1.216   1.557   9.769
18918W        W71814  10.447  29.734   0.800
18919W        W71815   9.815   0.942   2.621
18920W        W71816  21.530  32.143   8.706
18921W        W71817   7.661  25.196   2.058
18922W        W71818   2.486  22.578   8.191
18923W        W71819  13.553   4.324   8.287
18924W        W71820  31.116  34.137   7.061
18925W        W71821  10.126   8.041   7.443
18926W        W71822   2.282  10.872   1.502
18927W        W71823  33.459  24.428   9.843
18928W        W71824  32.274  20.114   1.076
18929W        W71825   4.431  31.658  10.103
18930W        W71826  17.479   3.665   1.976
18931W        W71827  32.920  12.390   9.403
18932W        W71828  31.196  17.788   0.042
18933W        W71829  19.764  24.349   8.476
18934W        W71830  12.716  15.711   2.393
18935W        W71831  29.817  15.622   0.553
18936W        W71832  33.648  31.302   8.423
18937W        W71833  19.298  31.465   3.151
18938W        W71834   6.125  25.655   7.945
18939W        W71835   3.976  16.645   8.136
18940W        W71836   1.460  25.922   8.476
18941W        W71837  11.622  12.071   1.971
18942W        W71838  25.676  26.696   0.820
18943W        W71839  33.251  15.927   0.582
18944W        W71840  34.358  26.447   3.308
18945W        W71841  27.637  22.288   0.706
18946W        W71842  15.162  28.080   0.979
18947W        W71843  33.509  27.546   9.587
18948W        W71844  24.354  28.852   7.987
18949W        W71845  31.573   5.624   8.536
18950W        W71846  12.336  16.904   8.121
18951W        W71847  30.584  27.906   1.286
18952W        W71848   3.353  26.422   0.759
18953W        W71849  17.658   8.509   2.720
18954W        W71850   3.688  33.347   8.173
18955W        W71851   9.024  16.922   2.419
18956W        W71852  24.740  19.888   2.366
18957W        W71853  27.187  27.526   1.913
18958W        W71854  25.563   2.978   8.816
18959W        W71855  26.629  33.063   0.974
18960W        W71856  11.496  14.548   8.438
18961W        W71857  19.378   7.673   9.028
18962W        W71858   7.035   8.230   9.017
18963W        W71859  32.436   5.172   1.989
18964W        W71860  35.263  31.461   0.874
18965W        W71861  30.352  21.672   1.918
18966W        W71862   1.585  21.906  10.240
18967W        W71863   9.619  28.006   8.983
18968W        W71864  32.020  30.431   2.750
18969W        W71865  26.117   5.640   0.307
18970W        W71866  23.240  19.497   8.840
18971W        W71867  23.846   9.342   7.928
18972W        W71868   9.976  22.856   8.902
18973W        W71869  17.013  31.503   1.888
18974W        W71870   8.468   2.067   7.582
18975W        W71871  28.951   3.623   8.494
18976W        W71872  35.960  28.578   1.756
18977W        W71873  22.140  23.589   7.348
18978W        W71874   0.555   7.147   1.830
18979W        W71875  12.312   6.473   0.513
18980W        W71876  10.603   9.923   7.872
18981W        W71877   8.497  28.814   1.680
18982W        W71878  25.693  12.271   0.663
18983W        W71879  23.953   1.322   1.023
18984W        W71880  25.569  13.114   0.488
18985W        W71881  15.164   5.059   9.018
18986W        W71882  35.167  13.356   1.280
18987W        W71883  35.750   8.946   2.004
18988W        W71884  18.663   3.222   1.838
18989W        W71885  18.702  27.070   8.535
18990W        W71886   8.001  25.846   8.154
18991W        W71887  14.126  30.877   8.743
18992W        W71888   7.226  24.343   2.522
18993W        W71889  21.367   7.688   8.031
18994W        W71890  34.568  33.677   8.259
18995W        W71891   9.443   5.766   8.289
18996W        W71892  26.972  30.613   2.951
18997W        W71893  33.627   7.170   1.661
18998W        W71894  31.739  11.748  10.082
18999W        W71895   9.233  18.957   2.136
19000W        W71896   9.639   7.245   1.044
19001W        W71897  10.090   9.905   1.225
19002W        W71898   1.336  35.489   2.338
19003W        W71899  19.552   5.490   7.523
19004W        W71900  16.884  29.475   1.126
19005W        W71901  33.925  28.648   0.690
19006W        W71902   9.485   4.659   6.978
19007W        W71903  16.735  16.928   1.887
19008W        W71904  35.226  10.037   8.455
19009W        W71905   2.933  34.200   0.425
19010W        W71906   3.487   0.734   9.071
19011W        W71907   9.665  16.360   8.242
19012W        W71908  12.289  32.009   7.519
19013W        W71909  27.368  14.653   1.046
19014W        W71910  30.522  25.250   1.779
19015W        W71911  35.088  35.669   2.300
19016W        W71912  11.127   8.979   3.096
19017W        W71913  15.604  31.930   2.138
19018W        W71914  24.461  23.516   9.593
19019W        W71915  19.660  34.804   2.654
19020W        W71916   6.830   1.123   8.801
19021W        W71917  22.012  14.547   6.924
19022W        W71918  12.413   1.820   1.324
19023W        W71919  18.238   7.314   9.626
19024W        W71920  13.331  13.957   3.296
19025W        W71921  31.981  35.992  10.270
19026W        W71922  21.756  25.475   0.698
19027W        W71923  24.272  20.257   9.418
19028W        W71924  27.115  29.146   9.414
19029W        W71925  20.312  33.051   0.620
19030W        W71926  11.685  13.954   0.548
19031W        W71927  33.336  29.843   9.293
19032W        W71928   5.022   7.369   3.389
19033W        W71929   0.998  25.350   2.504
19034W        W71930  10.289   0.484   7.891
19035W        W71931  10.866  21.556   0.447
19036W        W71932   2.426  34.392   9.518
19037W        W71933   8.225  15.652   3.005
19038W        W71934  21.660   6.222   9.831
19039W        W71935   9.085   7.887   1.607
19040W        W71936  10.633   9.707   1.970
19041W        W71937   4.536  30.268   2.726
19042W        W71938  31.683  30.082   9.042
19043W        W71939  30.757   1.278   8.693
19044W        W71940   0.593  26.070   7.748
19045W        W71941   1.032  26.387   0.246
19046W        W71942   1.968  18.343   9.016
19047W        W71943  13.796  19.557   1.349
19048W        W71944   7.197  30.449   3.135
19049W        W71945   6.588   7.390   7.537
19050W        W71946   4.999  28.903   2.559
19051W        W71947  17.377  22.666   8.911
19052W        W71948   0.370   5.558   8.289
19053W        W71949  28.617  16.782   9.965
19054W        W71950   1.018  27.510   9.262
19055W        W71951   0.784   1.356   9.882
19056W        W71952  31.473  27.400   9.686
19057W        W71953   3.435  13.789   3.353
19058W        W71954   3.359  12.780   1.932
19059W        W71955  10.851   9.637   0.142
19060W        W71956  25.655  35.098   7.726
19061W        W71957  32.077  33.011   1.136
19062W        W71958   7.295  22.839   0.138
19063W        W71959  33.918  14.117   1.758
19064W        W71960  13.922  12.571   1.955
19065W        W71961   8.105   7.537   9.386
19066W        W71962   2.814  23.118   0.712
19067W        W71963  30.824  35.931   0.720
19068W        W71964   1.181   8.965   0.284
19069W        W71965  13.094  23.905   0.110
19070W        W71966  34.884   7.160   8.553
19071W        W71967  30.608  30.989   0.897
19072W        W71968  16.116   7.254   3.226
19073W        W71969  15.594  16.491   0.685
19074W        W71970  21.326  26.564   2.801
19075W        W71971  24.507   3.253   1.946
19076W        W71972   8.286   9.913   8.839
19077W        W71973   7.928   1.462   8.624
19078W        W71974  12.953  31.175  10.183
19079W        W71975  34.772   5.360   8.699
19080W        W71976  24.888  24.992   1.739
19081W        W71977  23.926  22.904   8.572
19082W        W71978   6.304  18.116  10.025
19083W        W71979  17.936  18.684   3.019
19084W        W71980   2.307   9.157   0.873
19085W        W71981  24.578  14.137   4.051
19086W        W71982  35.820   2.145   8.074
19087W        W71983   6.192  34.410   2.179
19088W        W71984  27.088   2.553   3.384
19089W        W71985   6.606   1.586   8.618
19090W        W71986  17.113  23.501   0.764
19091W        W71987  32.069  12.082   3.520
19092W        W71988  31.850  30.288   1.691
19093W        W71989  16.380  33.087   0.394
19094W        W71990  13.446  12.890   6.877
19095W        W71991  33.676   9.650   0.578
19096W        W71992  23.589  19.598   1.904
19097W        W71993  23.908  11.574   2.916
19098W        W71994   2.609  14.062   2.412
19099W        W71995   3.666  11.709   2.100
19100W        W71996   5.073  15.362   9.574
19101W        W71997  14.894  27.977   0.436
19102W        W71998  29.750   6.494   2.347
19103W        W71999  33.852   3.016   0.786
19104W        W72000  10.479  19.599   2.084
19105W        W72001  13.394  15.721   3.177
19106W        W72002  28.019   6.280   1.435
19107W        W72003   4.833  25.064   7.601
19108W        W72004  34.828   8.003   3.350
19109W        W72005  17.231   3.319   2.317
19110W        W72006  10.686   1.775   0.571
19111W        W72007  23.221   3.158   9.263
19112W        W72008  15.875  12.588   8.912
19113W        W72009  17.135   5.539   3.361
19114W        W72010  10.877  13.906   1.711
19115W        W72011   2.056   5.019   7.309
19116W        W72012  24.891   7.481   0.778
19117W        W72013   6.902  21.241   0.356
19118W        W72014  26.147   0.239   8.584
19119W        W72015  12.650  14.782   2.658
19120W        W72016  26.917  35.014   7.482
19121W        W72017  11.095   1.302   0.570
19122W        W72018  23.023   5.285   2.845
19123W        W72019  21.566  10.958   3.620
19124W        W72020  19.308   4.859   9.733
19125W        W72021  28.013  30.784   1.282
19126W        W72022  22.924  33.665   1.107
19127W        W72023  12.588  24.712   1.159
19128W        W72024   9.056  32.966   0.234
19129W        W72025  30.100  27.331   0.948
19130W        W72026   4.180  28.509   8.407
19131W        W72027  34.701  12.551   9.116
19132W        W72028  11.365  20.762   9.097
19133W        W72029  15.994  27.563   9.116
19134W        W72030  12.079  20.395   8.461
19135W        W72031  26.977  13.339   8.212
19136W        W72032  10.125  13.691   1.313
19137W        W72033  29.714  24.227   1.545
19138W        W72034  12.895  10.861   2.729
19139W        W72035  25.923  31.073  10.164
19140W        W72036   8.237  19.783   2.688
19141W        W72037  14.849  23.481   9.643
19142W        W72038  23.584  29.292   9.943
19143W        W72039  21.487   2.821   8.099
19144W        W72040  30.931  27.313   3.580
19145W        W72041  30.509  15.137   2.167
19146W        W72042  15.645  29.982   9.358
19147W        W72043   5.682   5.814   3.863
19148W        W72044  35.377   7.094   8.328
19149W        W72045  23.714  16.534   8.063
19150W        W72046  18.700  15.990   7.908
19151W        W72047   6.826  22.539   8.248
19152W        W72048  29.058  32.009   9.877
19153W        W72049  11.841  22.244   2.182
19154W        W72050  17.454  19.065   9.682
19155W        W72051   6.870   9.783   6.823
19156W        W72052   8.970   1.311   9.949
19157W        W72053  21.465   7.294   1.753
19158W        W72054  34.674  35.110   0.788
19159W        W72055  15.755  33.481   3.562
19160W        W72056   4.672  27.326   3.542
19161W        W72057   2.262   3.450   8.576
19162W        W72058   1.479  20.767   2.517
19163W        W72059  16.561  16.428   8.119
19164W        W72060  27.762  21.741   7.863
19165W        W72061  15.573   7.861   2.084
19166W        W72062  13.866  28.872   7.604
19167W        W72063  14.912  29.369   1.155
19168W        W72064  16.975  25.477   8.317
19169W        W72065  25.641  26.773   8.834
19170W        W72066  23.608  28.663   3.255
19171W        W72067  28.922  29.563  10.292
19172W        W72068   6.817  15.784   9.078
19173W        W72069   0.801   2.982   9.885
19174W        W72070  14.816  32.648   7.963
19175W        W72071   3.108  34.977   9.303
19176W        W72072   5.242  23.587   9.227
19177W        W72073  17.653  27.925   0.499
19178W        W72074  22.631  20.748   1.956
19179W        W72075   4.920   1.414   2.124
19180W        W72076   0.752  24.529   9.013
19181W        W72077   6.726  33.820   9.607
19182W        W72078   5.473  13.485   3.240
19183W        W72079  22.960  30.223   0.756
19184W        W72080  13.724  24.829   9.002
19185W        W72081   1.268  24.450   8.825
19186W        W72082  22.069  14.660   9.979
19187W        W72083  16.472  19.632   8.150
19188W        W72084   2.238   4.285   9.681
19189W        W72085  24.543  32.938   7.561
19190W        W72086   8.668   1.141   1.280
19191W        W72087  15.105  11.297   1.091
19192W        W72088  24.713  15.479   9.920
19193W        W72089  19.558   1.785   3.206
19194W        W72090  14.884  14.761   9.921
19195W        W72091  22.986  31.681   9.594
19196W        W72092  31.294  24.016   0.435
19197W        W72093  29.528  33.197   8.781
19198W        W72094  24.713   9.827  10.091
19199W        W72095  14.676   9.672   1.578
19200W        W72096  33.812  20.149   0.247
19201W        W72097  26.425  14.022   9.989
19202W        W72098  32.547   9.941   9.043
19203W        W72099  18.708   4.343   1.242
19204W        W72100  22.237  34.130   2.805
19205W        W72101  13.182   6.652   8.263
19206W        W72102  29.780  27.863   1.334
19207W        W72103   0.033   9.332   2.007
19208W        W72104   5.385   9.464   8.551
19209W        W72105  15.457  23.525   0.210
19210W        W72106  24.935  33.369   2.136
19211W        W72107  12.072   9.611   1.929
19212W        W72108  32.614   1.938   9.323
19213W        W72109  18.682  25.221  10.142
19214W        W72110  11.468  17.120   8.720
19215W        W72111  18.932  17.001   2.892
19216W        W72112  18.867  24.967   2.882
19217W        W72113  22.355  14.060   2.897
19218W        W72114  15.541  10.035   9.233
19219W        W72115  12.152  14.432   2.675
19220W        W72116   6.060  13.624   1.486
19221W        W72117  11.865  33.017   0.013
19222W        W72118  14.121  24.240   0.839
19223W        W72119  24.416  34.485   1.600
19224W        W72120  29.386  27.805   9.020
19225W        W72121   4.737  32.064   2.181
19226W        W72122  32.951  22.767   2.180
19227W        W72123  20.027   9.551   2.132
19228W        W72124  25.644  33.634   2.892
19229W        W72125   0.097  19.198   2.425
19230W        W72126  14.922  29.870   1.025
19231W        W72127  15.262  30.302   9.371
19232W        W72128  13.103   3.368   2.782
19233W        W72129   2.900  24.788   9.836
19234W        W72130   8.827   8.221  10.094
19235W        W72131  28.250  33.105   0.293
19236W        W72132  23.097   9.457   2.114
19237W        W72133  29.714   7.771   9.030
19238W        W72134  28.060  32.439   7.492
19239W        W72135   4.037  12.295   9.361
19240W        W72136   1.315  34.511   0.982
19241W        W72137  35.061  17.023   0.290
19242W        W72138  26.771  34.861   9.429
19243W        W72139   9.647  24.696   7.380
19244W        W72140  30.003  13.963   9.100
19245W        W72141  31.833  35.168   1.621
19246W        W72142  29.197   6.649   2.362
19247W        W72143  22.976   0.826   0.046
19248W        W72144  23.507  21.779   7.986
19249W        W72145  18.564  15.965   9.470
19250W        W72146  18.346  19.862   0.369
19251W        W72147  33.204  30.266   1.220
19252W        W72148  27.686  14.917   0.689
19253W        W72149   3.497   1.109   0.238
19254W        W72150  35.185  34.782   0.242
19255W        W72151  34.781  14.794   9.103
19256W        W72152  27.535  25.929   0.792
19257W        W72153   8.343  30.293   9.659
19258W        W72154  15.393  21.594   9.895
19259W        W72155  33.233   9.030   9.086
19260W        W72156  25.655   8.016   9.580
19261W        W72157  27.907  26.091   1.105
19262W        W72158  33.795  25.618   8.130
19263W        W72159  13.195  33.602  10.064
19264W        W72160  28.747   1.298   0.618
19265W        W72161   7.043  25.225   1.892
19266W        W72162   4.629  34.390   0.287
19267W        W72163  23.422  12.472  10.201
19268W        W72164   3.358   7.125   2.710
19269W        W72165  18.015  34.339   8.337
19270W        W72166  22.368  15.429   2.225
19271W        W72167   3.828  22.126   0.694
19272W        W72168  13.202  34.360   7.496
19273W        W72169  17.605   3.827   7.690
19274W        W72170  34.027  12.550   7.738
19275W        W72171  35.569  16.716   9.864
19276W        W72172  21.332  16.155   8.443
19277W        W72173  12.002   4.824   1.132
19278W        W72174  16.220  16.014  10.204
19279W        W72175  25.567  11.088   1.295
19280W        W72176  13.096  27.199   8.777
19281W        W72177   7.304  10.341   0.769
19282W        W72178   5.788  27.570   0.168
19283W        W72179   8.751  16.696   2.870
19284W        W72180   7.792   9.162   0.735
19285W        W72181  25.001   9.381   9.721
19286W        W72182  13.146  34.456   2.728
19287W        W72183  31.024  26.320   2.355
19288W        W72184  29.541   3.901   9.179
19289W        W72185   9.294   9.180   7.166
19290W        W72186  32.535  30.987  10.022
19291W        W72187  34.532  31.782   0.218
19292W        W72188  12.873  19.131   3.372
19293W        W72189  21.197  13.861   2.212
19294W        W72190   1.999  12.220   8.082
19295W        W72191  29.587  33.773   1.727
19296W        W72192  16.456  32.192   2.910
19297W        W72193  30.530  15.671   2.165
19298W        W72194  20.905  17.558   2.214
19299W        W72195  25.825  34.409   1.844
19300W        W72196   2.259  35.763   1.283
19301W        W72197  30.404  24.346   2.866
19302W        W72198  19.761  14.182   8.752
19303W        W72199  21.153  30.050  10.262
19304W        W72200  21.203  27.660   3.394
19305W        W72201  34.072  24.485   8.233
19306W        W72202  25.378  22.091  10.078
19307W        W72203   6.650  26.405   2.103
19308W        W72204  21.696   6.789   1.680
19309W        W72205  12.026  29.152   7.156
19310W        W72206   1.474   0.252   7.961
19311W        W72207  15.915  21.374   8.015
19312W        W72208  24.536  21.871   7.267
19313W        W72209  20.587  33.232   2.112
19314W        W72210  14.240  35.086   1.395
19315W        W72211  20.218  19.331   3.151
19316W        W72212   3.103  13.447   8.499
19317W        W72213  25.157  27.258   9.382
19318W        W72214   5.947  32.616   2.783
19319W        W72215  21.251   7.998   9.670
19320W        W72216  27.109   5.788   0.538
19321W        W72217  35.487   9.532   9.676
19322W        W72218   6.312   6.634   2.574
19323W        W72219  27.211  32.325   2.401
19324W        W72220   2.746  23.768   7.739
19325W        W72221  14.430   3.931   0.978
19326W        W72222  11.409  29.463   0.482
19327W        W72223  12.652  31.751  10.168
19328W        W72224  30.754   9.108   7.806
19329W        W72225  20.983   0.945   1.670
19330W        W72226  20.450  35.507  10.018
19331W        W72227  34.308  32.593   1.097
19332W        W72228  18.963  20.589   1.747
19333W        W72229  18.123  34.887   1.852
19334W        W72230  32.750  31.215   9.084
19335W        W72231  22.826  21.527   0.231
19336W        W72232  18.896  26.445   9.657
19337W        W72233  12.207  30.330   1.721
19338W        W72234  32.054  31.317   8.350
19339W        W72235  34.996   6.294  10.220
19340W        W72236  23.642   0.745   9.631
19341W        W72237  22.855  29.751   0.916
19342W        W72238  25.309   4.924   8.562
19343W        W72239   5.535  26.245   1.772
19344W        W72240  16.809  12.482   7.085
19345W        W72241  22.511  24.285   9.351
19346W        W72242   8.093  20.991   8.915
19347W        W72243   5.577  28.639   7.971
19348W        W72244   0.117  11.013   2.015
19349W        W72245  20.989  12.049   9.745
19350W        W72246  34.722  32.804   9.303
19351W        W72247  32.969   1.430   6.805
19352W        W72248  20.792  11.593   0.119
19353W        W72249   7.752  27.757   0.265
19354W        W72250  18.544  12.594   3.285
19355W        W72251  33.781  10.565   8.604
19356W        W72252   7.940  11.411   8.691
19357W        W72253  25.959  20.776   2.792
19358W        W72254   0.038   7.319   2.150
19359W        W72255  14.955  28.416   1.292
19360W        W72256  24.373  30.644   8.906
19361W        W72257   3.353  12.672   9.968
19362W        W72258  30.475   3.113   1.683
19363W        W72259  19.103  19.926   9.721
19364W        W72260   8.638  23.102   9.437
19365W        W72261  32.974  14.855   2.185
19366W        W72262  17.045  23.964   2.014
19367W        W72263  28.392  14.410   3.476
19368W        W72264  13.903  25.969   2.544
19369W        W72265   9.415  11.340   2.719
19370W        W72266  22.308  10.808   3.246
19371W        W72267  15.010  20.906   8.265
19372W        W72268  19.640   9.419   2.354
19373W        W72269   2.420  10.270   9.846
19374W        W72270  24.665  10.359   8.242
19375W        W72271   6.850  17.400   9.756
19376W        W72272  33.524  29.673   8.867
19377W        W72273  35.717  16.758   2.430
19378W        W72274  33.485   3.473   1.580
19379W        W72275  11.118   5.758   9.717
19380W        W72276   8.212  29.782   0.594
19381W        W72277  12.670   0.157   9.857
19382W        W72278  23.515   1.648   0.808
19383W        W72279   3.575  35.538   0.119
19384W        W72280   6.062  24.019   3.078
19385W        W72281   5.440   5.632   8.467
19386W        W72282  33.666  21.779   3.078
19387W        W72283   0.389  24.949   0.659
19388W        W72284  29.793  35.257   1.289
19389W        W72285  18.319  30.440   2.081
19390W        W72286   8.258  18.615   8.797
19391W        W72287  18.387  17.451   1.731
19392W        W72288  17.349  19.651   3.046
19393W        W72289  33.349  22.483   8.547
19394W        W72290  35.294   3.283   8.048
19395W        W72291  13.365  25.338   1.367
19396W        W72292   8.707  23.289   8.681
19397W        W72293  32.023  34.008   2.464
19398W        W72294  28.384   5.647   0.080
19399W        W72295  23.286  29.687   9.605
19400W        W72296   7.106  15.300   7.549
19401W        W72297  19.723  17.497   3.134
19402W        W72298  17.655  20.785   3.807
19403W        W72299  20.268  19.912   9.719
19404W        W72300  33.114   6.603   8.459
19405W        W72301   2.970  18.602   9.298
19406W        W72302  16.925  25.302   1.413
19407W        W72303   2.459  18.446   2.146
19408W        W72304  24.160  25.114   9.062
19409W        W72305   2.130  11.330   9.105
19410W        W72306   9.812  31.265   9.512
19411W        W72307  13.771  16.033   2.341
19412W        W72308   4.681   5.540   0.639
19413W        W72309  17.370  29.516   2.550
19414W        W72310  29.245  27.180   0.724
19415W        W72311  26.727  25.027   0.209
19416W        W72312  33.936  34.941   3.303
19417W        W72313  25.614   7.864   9.080
19418W        W72314   1.814  22.099   8.591
19419W        W72315  35.296  20.743   9.819
19420W        W72316  21.185   5.733   8.623
19421W        W72317  10.523  34.215   9.660
19422W        W72318  20.506  33.217   1.574
19423W        W72319  24.924  14.338   3.347
19424W        W72320   7.820  34.421   2.230
19425W        W72321  20.370   4.633   8.722
19426W        W72322  29.315  32.369   7.551
19427W        W72323  23.662  30.432   9.961
19428W        W72324  13.673  15.550   2.715
19429W        W72325  19.586  26.481   1.011
19430W        W72326  27.431   7.876   9.218
19431W        W72327   0.960  34.087   9.203
19432W        W72328  10.443  32.232   1.767
19433W        W72329  14.905  25.849   8.646
19434W        W72330  30.177  28.821   0.822
19435W        W72331  29.231  20.851   9.500
19436W        W72332   4.357  27.791   3.649
19437W        W72333   3.211  24.128   7.441
19438W        W72334  35.814   2.015   0.893
19439W        W72335  19.577   9.856   9.604
19440W        W72336  21.673  19.379   9.618
19441W        W72337  13.968  17.961   0.559
19442W        W72338  18.732  20.469   8.669
19443W        W72339  28.939  15.429   1.025
19444W        W72340  28.172  12.290   1.561
19445W        W72341  33.689   0.929   2.295
19446W        W72342  10.494   9.704   2.597
19447W        W72343  20.254  35.287   0.204
19448W        W72344  27.656   7.039   2.505
19449W        W72345  16.266  17.557   2.336
19450W        W72346  31.099   6.994  10.272
19451W        W72347  29.317  28.667   8.046
19452W        W72348   4.943  27.127   2.845
19453W        W72349   2.598  30.123   9.607
19454W        W72350  32.044   4.957   0.200
19455W        W72351  15.489   3.980   8.928
19456W        W72352  25.828  32.300   2.272
19457W        W72353   2.869   5.356   7.972
19458W        W72354   0.459  27.513   9.501
19459W        W72355  26.959  15.797   7.757
19460W        W72356  22.515  16.001   2.579
19461W        W72357  27.889  16.785   8.852
19462W        W72358   6.511   2.556   9.121
19463W        W72359  20.834   9.744   8.331
19464W        W72360  34.984  26.255   0.869
19465W        W72361   9.702  20.681   0.504
19466W        W72362  14.087   6.722   7.580
19467W        W72363  18.675   8.852   0.935
19468W        W72364  32.424  30.990   7.658
19469W        W72365   2.805  25.683   0.117
19470W        W72366  21.488   8.703   2.645
19471W        W72367  23.149   4.169   9.562
19472W        W72368   1.662  34.027   0.922
19473W        W72369  33.659  11.046   2.433
19474W        W72370   3.570  26.568   2.552
19475W        W72371  13.514  25.514   8.403
19476W        W72372  19.791  25.980   2.393
19477W        W72373  15.807   6.676   2.801
19478W        W72374  34.618   6.583   1.800
19479W        W72375  14.900   7.165   8.407
19480W        W72376  16.760   8.976  10.191
19481W        W72377   0.867  31.741   9.287
19482W        W72378  30.115   0.909   2.416
19483W        W72379  34.343   0.779   8.884
19484W        W72380  11.260  16.591   2.646
19485W        W72381  24.495  25.758   1.967
19486W        W72382   3.875  31.942   0.542
19487W        W72383  23.553  21.801   0.359
19488W        W72384  33.860  12.889   9.099
19489W        W72385  12.969  12.313   2.252
19490W        W72386  29.791  10.824   1.480
19491W        W72387  22.679   3.053   0.344
19492W        W72388  22.495  19.275   9.705
19493W        W72389   6.020  34.685   7.509
19494W        W72390  13.782  33.325   9.775
19495W        W72391  28.513   0.988   1.856
19496W        W72392  10.447  24.726   7.217
19497W        W72393  29.261   5.831   1.805
19498W        W72394  35.805  27.925   1.430
19499W        W72395  34.241  16.024   8.336
19500W        W72396  21.581  22.857   2.781
19501W        W72397  31.736  28.600   1.907
19502W        W72398  33.310  25.602   0.550
19503W        W72399  20.333  20.310   2.015
19504W        W72400   2.846  32.237   3.071
19505W        W72401  30.401  21.739   9.935
19506W        W72402   5.937   4.971  10.260
19507W        W72403  22.958  11.620   7.519
19508W        W72404  14.938  29.057   2.091
19509W        W72405  23.906   3.086   9.639
19510W        W72406   9.030  34.725   0.186
19511W        W72407  22.995  35.367   2.145
19512W        W72408   8.197  10.080   1.974
19513W        W72409  16.556  29.030   1.874
19514W        W72410  15.594  33.291   8.278
19515W        W72411  21.979  16.914   1.744
19516W        W72412  25.457  17.892  10.075
19517W        W72413  33.002   2.223  10.205
19518W        W72414   2.277  26.856  10.332
19519W        W72415   2.696   4.496   2.801
19520W        W72416   9.534  23.606   7.524
19521W        W72417  19.511  12.595   2.481
19522W        W72418  13.274   1.800   2.712
19523W        W72419   8.379  14.715   8.539
19524W        W72420   8.421  30.186   1.006
19525W        W72421  16.730   4.867   1.947
19526W        W72422   7.311  25.551   9.752
19527W        W72423  11.545  23.817   1.224
19528W        W72424   9.232  22.451   0.291
19529W        W72425  25.303  13.549   0.968
19530W        W72426  15.244   3.979   9.786
19531W        W72427  18.607   8.805  10.204
19532W        W72428  22.889  12.611   2.098
19533W        W72429  31.959  23.072   0.228
19534W        W72430  28.022  17.397   8.060
19535W        W72431  22.899  30.966   1.549
19536W        W72432  16.891  20.521  10.311
19537W        W72433   2.409  15.905   0.188
19538W        W72434  31.549  29.517   8.946
19539W        W72435  24.840  33.667  10.115
19540W        W72436   8.408   4.293   9.980
19541W        W72437  29.729   7.588   8.353
19542W        W72438  14.196  31.740   3.380
19543W        W72439  25.924  10.191   9.639
19544W        W72440   3.013  20.310   2.491
19545W        W72441  13.668  28.783   1.296
19546W        W72442  25.057  18.475   9.406
19547W        W72443   4.078  14.742   2.860
19548W        W72444  24.100  28.597   8.352
19549W        W72445  23.800   1.956  10.320
19550W        W72446   1.190   0.711   3.123
19551W        W72447  26.775  10.059   0.708
19552W        W72448  29.098  17.988   3.357
19553W        W72449  24.136  26.137   1.966
19554W        W72450  29.326  34.888   2.338
19555W        W72451  19.974   5.694   2.303
19556W        W72452  30.570  10.753   8.666
19557W        W72453  16.863  33.745   1.917
19558W        W72454  15.063  18.389   0.366
19559W        W72455  31.937   5.339   1.986
19560W        W72456   7.692   9.069  10.102
19561W        W72457   6.870  11.888  10.243
19562W        W72458  26.612   0.935   9.445
19563W        W72459  35.230  26.749   2.806
19564W        W72460  10.058  24.140   7.630
19565W        W72461  15.556  17.600   8.674
19566W        W72462  25.977  17.480   3.995
19567W        W72463  20.084  23.879   3.189
19568W        W72464  26.310  19.137   8.730
19569W        W72465  19.818   7.757   9.327
19570W        W72466  19.655  24.092   8.995
19571W        W72467  24.945  17.111   9.174
19572W        W72468  27.451  20.266   0.338
19573W        W72469   7.881  16.353   7.982
19574W        W72470  29.821  14.938   1.110
19575W        W72471   7.696  27.491   0.849
19576W        W72472   1.828   9.711   2.690
19577W        W72473  25.645   3.458   8.796
19578W        W72474   3.449  25.051   3.194
19579W        W72475   5.174  18.621   8.959
19580W        W72476  31.437  33.461   0.259
19581W        W72477  32.102  27.678   9.147
19582W        W72478  27.034   4.034   1.227
19583W        W72479  16.276  28.748   9.805
19584W        W72480  15.802  17.653   2.151
19585W        W72481   0.375  34.838   0.892
19586W        W72482  19.482  14.987   3.138
19587W        W72483   5.954   7.921  10.029
19588W        W72484  30.728  33.169   7.690
19589W        W72485   0.843  26.996   1.335
19590W        W72486  15.133  24.652   1.183
19591W        W72487  30.499   3.905   2.891
19592W        W72488   8.734   4.198   9.492
19593W        W72489  18.045  19.213   0.722
19594W        W72490  26.845  10.453   0.389
19595W        W72491  18.038  19.667   8.787
19596W        W72492  12.259   8.388   0.067
19597W        W72493  33.987   9.965   3.159
19598W        W72494  31.500  28.520   0.226
19599W        W72495  19.217  12.522   2.903
19600W        W72496  30.990  18.528   0.747
19601W        W72497  18.032  24.507   1.831
19602W        W72498   7.849  28.830   9.813
19603W        W72499  18.740   3.899  10.174
19604W        W72500  29.028  21.392   9.787
19605W        W72501  30.202  14.102   0.397
19606W        W72502  29.789  10.938   9.627
19607W        W72503  23.109  25.786   8.713
19608W        W72504  33.747  22.397   9.053
19609W        W72505   3.159   9.574  10.106
19610W        W72506  22.321   6.388   8.152
19611W        W72507   4.719  18.437   0.433
19612W        W72508   1.300   5.347   8.388
19613W        W72509  20.480  17.222   3.058
19614W        W72510  19.923  25.065   9.606
19615W        W72511   4.112   9.014   8.709
19616W        W72512  11.774  12.112  10.288
19617W        W72513  23.921  32.437   0.432
19618W        W72514  25.625   1.771   3.774
19619W        W72515  34.677   8.784   1.101
19620W        W72516  15.732  12.618   0.333
19621W        W72517  13.226  34.347   1.094
19622W        W72518  30.626  18.777   7.812
19623W        W72519  11.112  16.801   7.680
19624W        W72520  33.211   8.717   1.597
19625W        W72521  31.740   3.713  10.168
19626W        W72522  23.539   3.395   8.418
19627W        W72523   5.809   3.024   8.101
19628W        W72524  20.476  33.124   2.970
19629W        W72525  21.135   6.220   9.979
19630W        W72526   5.917  28.444   1.917
19631W        W72527  35.296  21.060   8.767
19632W        W72528  13.816  28.605   2.867
19633W        W72529  17.492  26.918   1.225
19634W        W72530   0.936  35.535  10.066
19635W        W72531  18.405   8.333   0.045
19636W        W72532  27.411  22.426   8.429
19637W        W72533   0.387  12.240   8.477
19638W        W72534   9.178  27.664   1.026
19639W        W72535  25.812  33.555   9.862
19640W        W72536   8.552  32.174   8.859
19641W        W72537  25.518   8.015   0.924
19642W        W72538  10.330   7.887   3.929
19643W        W72539  35.472  30.752   1.727
19644W        W72540  17.145  18.674   0.690
19645W        W72541  20.832  32.707   2.104
19646W        W72542  10.189  32.011   2.778
19647W        W72543  19.437  33.931   0.895
19648W        W72544  18.281  20.749   8.183
19649W        W72545  25.853  26.806   1.260
19650W        W72546   2.317  16.088   1.666
19651W        W72547  24.814  31.949   8.695
19652W        W72548  35.265  16.498   4.114
19653W        W72549   0.963   6.843   8.939
19654W        W72550  21.028  11.830   1.138
19655W        W72551  20.924  35.737  10.114
19656W        W72552  31.067  16.096  10.115
19657W        W72553  11.167  23.872   2.849
19658W        W72554  13.955  23.961   2.225
19659W        W72555  17.574  15.676   8.558
19660W        W72556  32.190  14.240   1.455
19661W        W72557  32.169  21.657   2.978
19662W        W72558   4.578  10.266   1.031
19663W        W72559  32.291  21.299   9.506
19664W        W72560  23.906   3.466   8.096
19665W        W72561  12.766   1.993   1.668
19666W        W72562  20.427  19.683   0.605
19667W        W72563  35.272  19.115   0.302
19668W        W72564   3.341  26.155   3.738
19669W        W72565  26.299  33.976   0.263
19670W        W72566  20.918  34.346   2.577
19671W        W72567   1.868  17.368   9.538
19672W        W72568   2.636  16.557   8.676
19673W        W72569  14.327  16.791   8.512
19674W        W72570  12.447   2.607   8.409
19675W        W72571  35.462  35.936   8.667
19676W        W72572  21.034  32.283   3.013
19677W        W72573  13.056  27.451   3.153
19678W        W72574  23.794   5.663   2.968
19679W        W72575   9.932  19.197   2.863
19680W        W72576   5.910  11.990   0.551
19681W        W72577   4.939   9.597   2.987
19682W        W72578  10.589   4.186   8.926
19683W        W72579  24.165  29.989   7.452
19684W        W72580   4.945   6.571   0.452
19685W        W72581  33.327  11.218   2.764
19686W        W72582   0.900   6.146  10.087
19687W        W72583  14.492  11.126   9.395
19688W        W72584   1.659   1.875   2.101
19689W        W72585   9.906  30.413  10.096
19690W        W72586  15.100   2.096   0.475
19691W        W72587   5.404   3.127   1.986
19692W        W72588   1.810   3.871   2.256
19693W        W72589  28.905  28.610   0.465
19694W        W72590  33.529  18.419   9.057
19695W        W72591   7.771  16.943   8.204
19696W        W72592  13.523  20.905   9.664
19697W        W72593  30.304  24.083   0.884
19698W        W72594  31.704   6.004   9.428
19699W        W72595  30.562  33.541   0.874
19700W        W72596  10.846  18.181   2.695
19701W        W72597  15.693  19.730  10.079
19702W        W72598  12.938  17.136   3.345
19703W        W72599  35.737  16.662   8.225
19704W        W72600  34.558  26.262   0.523
19705W        W72601   1.911  10.928   9.182
19706W        W72602   3.230   2.475   9.735
19707W        W72603   3.350  34.894   7.867
19708W        W72604   4.399  33.477   0.502
19709W        W72605  17.957   3.013   1.356
19710W        W72606   1.379   2.585   3.194
19711W        W72607  10.786  29.304   8.529
19712W        W72608  28.358   2.096   0.817
19713W        W72609  23.389   8.064   8.918
19714W        W72610  13.404   7.146   1.459
19715W        W72611  16.855  24.545   0.701
19716W        W72612  34.221   3.146   8.920
19717W        W72613  10.398  21.601   0.121
19718W        W72614   6.892  33.594   1.755
19719W        W72615   1.588  32.347   1.932
19720W        W72616  31.323   6.945   7.605
19721W        W72617  21.957  23.144   7.693
19722W        W72618  11.039   0.703   7.637
19723W        W72619  14.430  23.505   1.600
19724W        W72620  25.667   2.993   8.311
19725W        W72621  11.242  27.323   7.032
19726W        W72622  30.930   7.310   7.756
19727W        W72623  32.363   7.689   2.370
19728W        W72624  22.915  23.594   7.827
19729W        W72625   2.270  25.959   9.485
19730W        W72626  29.345  32.944  10.214
19731W        W72627  13.523  11.151   3.131
19732W        W72628  19.504   6.365   7.733
19733W        W72629  26.586  19.289   3.040
19734W        W72630  13.327  12.624   7.928
19735W        W72631   4.870   7.813   7.800
19736W        W72632  11.597  31.901   2.547
19737W        W72633  31.900   3.887   8.481
19738W        W72634   9.844   3.676   7.652
19739W        W72635   7.863  28.835   1.096
19740W        W72636  28.879  22.459   8.444
19741W        W72637  33.924   8.163   0.491
19742W        W72638  21.188  20.035   9.682
19743W        W72639  34.387  12.253   7.892
19744W        W72640  30.515  21.382   8.076
19745W        W72641   0.923  19.953   9.984
19746W        W72642  34.186   2.608   0.884
19747W        W72643  24.090  26.074   9.586
19748W        W72644  34.265  19.759   2.406
19749W        W72645  12.092  16.201   0.906
19750W        W72646   8.599   5.474   9.507
19751W        W72647   1.662  22.020   0.416
19752W        W72648  28.099   9.689   9.416
19753W        W72649  25.182  17.768   1.697
19754W        W72650  24.734  29.510   8.642
19755W        W72651  31.584  25.591   0.021
19756W        W72652  24.137   9.668   7.757
19757W        W72653  34.686  25.476   9.968
19758W        W72654  11.981   4.279   1.369
19759W        W72655  10.190  34.309   0.346
19760W        W72656   3.822  12.895   8.145
19761W        W72657  23.774  22.906   2.372
19762W        W72658  15.032  33.342   9.713
19763W        W72659  35.475   1.398   2.053
19764W        W72660  26.343  34.077   7.480
19765W        W72661  24.749   8.165   9.526
19766W        W72662  24.179  14.747   0.646
19767W        W72663  27.556  15.172   1.348
19768W        W72664  19.394   6.995   8.386
19769W        W72665  35.672  15.433   3.146
19770W        W72666  29.955  34.966   9.491
19771W        W72667  11.969  33.079   0.861
19772W        W72668  29.991  23.418  10.062
19773W        W72669  21.976  13.319   0.815
19774W        W72670  28.806  25.031   7.649
19775W        W72671   4.218  18.244   2.812
19776W        W72672  13.417   6.089   9.049
19777W        W72673  11.609  26.169   2.170
19778W        W72674  33.520   0.567   9.349
19779W        W72675  33.790  29.661   3.693
19780W        W72676  31.063  23.248   2.641
19781W        W72677  31.327  15.297   8.061
19782W        W72678  18.978  27.937  10.183
19783W        W72679   2.141  11.764   9.347
19784W        W72680  19.414  29.646   2.047
19785W        W72681  23.391  32.568   1.488
19786W        W72682  24.571  22.867   3.556
19787W        W72683  34.348  26.867   7.570
19788W        W72684   3.279  32.466   3.118
19789W        W72685  15.306  35.580   1.450
19790W        W72686  12.701  19.002   8.328
19791W        W72687  16.324  27.438   0.839
19792W        W72688  28.858   6.999   2.764
19793W        W72689  24.224   4.061   9.756
19794W        W72690   1.913  17.608   7.874
19795W        W72691  15.450  34.097   8.645
19796W        W72692   4.919  25.539   7.818
19797W        W72693  34.943   0.858   0.301
19798W        W72694  15.415  26.797   8.542
19799W        W72695  27.868  26.059  10.101
19800W        W72696   0.383  11.823   7.618
19801W        W72697  21.272  23.086   9.382
19802W        W72698  14.193  31.620   1.733
19803W        W72699   3.134   5.643   1.305
19804W        W72700  27.505   0.469  10.195
19805W        W72701  33.346  10.899   8.498
19806W        W72702  35.376   9.202   3.536
19807W        W72703  24.734  24.119   2.082
19808W        W72704  20.915  33.700   8.858
19809W        W72705  31.844  23.782   9.935
19810W        W72706   7.575   8.298   9.123
19811W        W72707   0.381  12.545   2.200
19812W        W72708   8.672  17.914   1.709
19813W        W72709  25.947  28.107   0.812
19814W        W72710  23.002   2.928   8.937
19815W        W72711  12.777  28.184   1.155
19816W        W72712   0.486  27.347   1.173
19817W        W72713  22.484  34.911   0.819
19818W        W72714   3.253   7.538   3.029
19819W        W72715  19.292  18.635   3.598
19820W        W72716   6.414  35.097   2.807
19821W        W72717  30.083   3.274   0.639
19822W        W72718   8.081   7.493   2.699
19823W        W72719   0.901  21.823   9.499
19824W        W72720  33.925   3.528   8.100
19825W        W72721  20.010  12.258   0.390
19826W        W72722  21.450  11.671   4.200
19827W        W72723   2.916  12.199   2.739
19828W        W72724  15.894  22.111   2.761
19829W        W72725   7.578  27.723   1.752
19830W        W72726  20.010  32.198   7.666
19831W        W72727  27.680  34.234   9.887
19832W        W72728  32.272  10.452   0.088
19833W        W72729  25.608  24.154   2.435
19834W        W72730  16.238  30.622   9.127
19835W        W72731   2.735   8.948   9.650
19836W        W72732   2.629  22.118   2.371
19837W        W72733  12.464   0.852   7.505
19838W        W72734  27.253   5.873   9.604
19839W        W72735  11.380  19.716   0.196
19840W        W72736  29.524   3.421   0.708
19841W        W72737  17.771  29.523   0.034
19842W        W72738  18.309  35.831   9.500
19843W        W72739  30.494  30.303   1.617
19844W        W72740  24.482  18.678   9.442
19845W        W72741  28.083   0.056   9.738
19846W        W72742  23.937  20.595   7.547
19847W        W72743  11.109  12.421   8.353
19848W        W72744  24.169  27.928   7.630
19849W        W72745  14.361  27.777   8.220
19850W        W72746  26.616  35.396   0.418
19851W        W72747  14.860  11.089   8.667
19852W        W72748  26.683  25.531   0.393
19853W        W72749   5.220  12.134   8.305
19854W        W72750  15.674   3.341   8.050
19855W        W72751  18.989  34.891   8.620
19856W        W72752   6.202   5.641   2.719
19857W        W72753  10.582  32.193   0.400
19858W        W72754  10.838  35.749   0.100
19859W        W72755   6.342  30.795   7.571
19860W        W72756  34.885  29.960   2.882
19861W        W72757   3.286  33.836   0.468
19862W        W72758   6.168  23.587   9.738
19863W        W72759  10.980   0.961   2.180
19864W        W72760  34.877   4.661   1.075
19865W        W72761  34.842  24.002   8.410
19866W        W72762  34.201  23.370   8.181
19867W        W72763  32.205  32.658   9.434
19868W        W72764  11.063   5.050   2.264
19869W        W72765  23.588   0.711   0.648
19870W        W72766  36.004  34.532   0.190
19871W        W72767   4.809  16.340   8.542
19872W        W72768  35.760  28.851   8.056
19873W        W72769  11.270  32.528   9.561
19874W        W72770  13.410   6.467   3.152
19875W        W72771  12.504  18.745   2.542
19876W        W72772  12.945  17.519  10.114
19877W        W72773   0.755  24.766   1.039
19878W        W72774   4.668  27.890   9.897
19879W        W72775  35.173  25.680   7.686
19880W        W72776  31.825   1.377   9.363
19881W        W72777  14.501   1.273   8.508
19882W        W72778  20.024  18.712   8.179
19883W        W72779   1.390   4.046   8.027
19884W        W72780  12.786   3.460   8.853
19885W        W72781  35.400   7.854   0.293
19886W        W72782  26.718  17.663   2.817
19887W        W72783   2.810  18.591   7.995
19888W        W72784  20.844   7.204   2.432
19889W        W72785  34.849  11.058   0.901
19890W        W72786   8.214   8.504   9.371
19891W        W72787  14.820  21.084   8.754
19892W        W72788  32.598   9.751   9.720
19893W        W72789  33.863  20.032   8.265
19894W        W72790   2.458  15.272   1.010
19895W        W72791  12.552  12.841   0.221
19896W        W72792  22.090  14.373   3.157
19897W        W72793   2.102  24.597   2.164
19898W        W72794  31.022  24.234   3.547
19899W        W72795   7.949  19.416   7.427
19900W        W72796  11.055  32.602   0.150
19901W        W72797  11.447  32.975   9.964
19902W        W72798  18.851  24.537   9.049
19903W        W72799  30.604   9.307   0.046
19904W        W72800   3.494   5.070   7.978
19905W        W72801  34.655  13.635   0.900
19906W        W72802  12.725  31.780   0.858
19907W        W72803  14.256  25.278   1.027
19908W        W72804  28.762  22.458   3.293
19909W        W72805  19.098  35.387   0.835
19910W        W72806  26.618  25.303  10.140
19911W        W72807   2.262   2.939   0.714
19912W        W72808  22.068  27.143   1.203
19913W        W72809   8.626   9.851   2.067
19914W        W72810  20.254  34.942   7.937
19915W        W72811  12.796   9.358   3.249
19916W        W72812   2.316  28.795   1.666
19917W        W72813  16.030  30.807   8.310
19918W        W72814  27.944   2.917   0.751
19919W        W72815  26.531  18.456   8.574
19920W        W72816   0.799   9.967   8.918
19921W        W72817   5.039  29.139   1.542
19922W        W72818   1.601  27.195   8.038
19923W        W72819  27.685  33.864   8.980
19924W        W72820  30.170  21.348  10.230
19925W        W72821   6.412  29.535   9.736
19926W        W72822  34.960  24.922   2.083
19927W        W72823   0.169   9.049   3.454
19928W        W72824  25.743   6.501   1.196
19929W        W72825  34.858   9.520   9.712
19930W        W72826   6.990  22.421   0.398
19931W        W72827  27.793  27.231   2.677
19932W        W72828  33.493  22.007   9.472
19933W        W72829  34.391  32.720  10.244
19934W        W72830   8.845  29.703   1.335
19935W        W72831  10.095   7.782   8.828
19936W        W72832  17.265  25.733   9.431
19937W        W72833  12.502  13.752   0.204
19938W        W72834  24.225  17.300   1.698
19939W        W72835   8.224  35.676   0.043
19940W        W72836  22.451  24.678   8.391
19941W        W72837  26.212   4.741   8.098
19942W        W72838  12.696  17.344   9.324
19943W        W72839  14.435  22.099   0.375
19944W        W72840   4.719   4.497   9.619
19945W        W72841  29.240  19.631   9.146
19946W        W72842   9.589  13.744   7.945
19947W        W72843  22.536  23.505   9.560
19948W        W72844   7.025  14.017  10.303
19949W        W72845  16.084  27.102   2.237
19950W        W72846  35.082   0.879   8.639
19951W        W72847  30.503  12.563   8.380
19952W        W72848  22.715   4.761   2.759
19953W        W72849   8.682  19.074   2.115
19954W        W72850   0.672   2.440   2.284
19955W        W72851  23.816  26.207   0.449
19956W        W72852   7.743   9.719   8.863
19957W        W72853  27.737  23.797   9.342
19958W        W72854  27.528  14.579  10.322
19959W        W72855  18.142  11.287   9.224
19960W        W72856  12.467  24.101   7.406
19961W        W72857   8.834   2.801   1.438
19962W        W72858   7.949  18.038   0.456
19963W        W72859   6.906  26.664   2.403
19964W        W72860  19.651  24.895   0.325
19965W        W72861  31.512  28.351   3.177
19966W        W72862  14.376  26.309   1.709
19967W        W72863  34.702  11.684   0.041
19968W        W72864   4.111  19.700   8.863
19969W        W72865  24.960  22.248   7.882
19970W        W72866  19.282  22.682   0.873
19971W        W72867   9.596  12.588   8.121
19972W        W72868   0.043   1.867   8.419
19973W        W72869  32.680   8.769   0.099
19974W        W72870   7.279  23.068   9.499
19975W        W72871  19.368   3.311   2.788
19976W        W72872  15.910  32.050  10.315
19977W        W72873  34.513  35.682   8.836
19978W        W72874  27.082  29.513   0.419
19979W        W72875   0.686  32.722   1.638
19980W        W72876   4.912  24.805   9.427
19981W        W72877  26.617   4.995   8.923
19982W        W72878  16.913  18.179   8.473
19983W        W72879  24.966  17.796   8.606
19984W        W72880  18.554  23.336   9.996
19985W        W72881  27.115  28.010   8.872
19986W        W72882  33.180  34.342   7.883
19987W        W72883  24.373   2.669   8.496
19988W        W72884  17.732  28.135   8.829
19989W        W72885   1.177  33.707   0.165
19990W        W72886  14.790  27.989   1.396
19991W        W72887  19.883  25.505   2.109
19992W        W72888  17.325   8.310  10.087
19993W        W72889  22.874  34.037   7.130
19994W        W72890   9.093   8.719   0.675
19995W        W72891   8.619  24.993   8.915
19996W        W72892  20.071   9.538   1.134
19997W        W72893  34.339  10.488   0.869
19998W        W72894  12.899   4.966  10.049
19999W        W72895  18.993   7.019   2.861
20000W        W72896  10.012  24.671   1.642
20001W        W72897  17.722  12.944   3.524
20002W        W72898  12.967   9.894   7.907
20003W        W72899  34.026  18.364   2.501
20004W        W72900  33.862   4.776   8.852
20005W        W72901  16.623  20.198   3.022
20006W        W72902  24.886  13.101   1.731
20007W        W72903  10.598  13.412   0.137
20008W        W72904  17.125  33.814   9.940
20009W        W72905   0.092  25.907   1.536
20010W        W72906   0.098  31.410   2.126
20011W        W72907  26.055  23.021   2.778
20012W        W72908  31.766  11.611   2.387
20013W        W72909  12.338  27.198   2.741
20014W        W72910  18.445  11.543   8.892
20015W        W72911  16.988  33.920   1.323
20016W        W72912  23.745  22.973   9.101
20017W        W72913  28.315  19.678   0.633
20018W        W72914  15.183  17.034   2.059
20019W        W72915  24.493  21.485   2.707
20020W        W72916  10.922  33.812   3.143
20021W        W72917  13.497  19.215   9.191
20022W        W72918   6.290  30.202   8.459
20023W        W72919  20.626  11.597   0.563
20024W        W72920  15.294  20.054   0.023
20025W        W72921  34.981   7.998   2.535
20026W        W72922  15.264   3.164   2.266
20027W        W72923  22.913   1.222   1.787
20028W        W72924   3.510  25.017   0.807
20029W        W72925  31.513  28.975   9.807
20030W        W72926   0.211   2.521   2.178
20031W        W72927   6.044   2.491  10.027
20032W        W72928  13.440  25.260   8.930
20033W        W72929  32.113  17.546   1.793
20034W        W72930  34.970  16.237   1.623
20035W        W72931  27.939  16.729   2.285
20036W        W72932   5.087  24.565   9.833
20037W        W72933  21.634  32.276   0.671
20038W        W72934   8.614  29.284   1.843
20039W        W72935  28.449   7.034   0.941
20040W        W72936   0.161  25.461   0.906
20041W        W72937  13.364  33.270   1.167
20042W        W72938  32.433   0.312   0.958
20043W        W72939   5.156  26.523   9.999
20044W        W72940  20.409  25.580   1.748
20045W        W72941   0.670  15.801   2.000
20046W        W72942  21.124  34.466   3.505
20047W        W72943  10.606   4.308   0.592
20048W        W72944  30.676  16.501  10.188
20049W        W72945   9.095  35.186   2.448
20050W        W72946  30.674  18.211  10.097
20051W        W72947   1.868   5.574   0.067
20052W        W72948  19.880   4.298   8.057
20053W        W72949   2.629   0.729   3.541
20054W        W72950   0.256  14.016   0.049
20055W        W72951   5.934  32.660   1.499
20056W        W72952  21.205  15.395   8.441
20057W        W72953  15.743   8.353   0.828
20058W        W72954   1.121  15.163  10.079
20059W        W72955  11.369  12.521   0.635
20060W        W72956   9.961  17.473   1.866
20061W        W72957   2.660   4.103   1.830
20062W        W72958   5.421  15.234   1.845
20063W        W72959   2.807  16.343  10.315
20064W        W72960   5.431  10.094   8.935
20065W        W72961  19.771   5.045   1.843
20066W        W72962  30.026  25.739   9.103
20067W        W72963  16.757  10.415   0.476
20068W        W72964  11.785   3.828   2.663
20069W        W72965   1.315   6.779   8.489
20070W        W72966   3.338  32.026   1.247
20071W        W72967   9.522  18.348   9.647
20072W        W72968  16.692  19.204   2.557
20073W        W72969   9.745   3.915   7.236
20074W        W72970  34.312  30.844   0.002
20075W        W72971  16.173  26.568   9.107
20076W        W72972   6.391   9.357   0.625
20077W        W72973  21.479  21.208   9.289
20078W        W72974  18.470   0.745   1.509
20079W        W72975   6.930  22.700   8.719
20080W        W72976   0.219   4.091   1.863
20081W        W72977   4.343   0.145   8.654
20082W        W72978  31.558  27.119   3.307
20083W        W72979   0.182  13.106   0.097
20084W        W72980  19.083  12.558   2.185
20085W        W72981   9.447  19.650   9.230
20086W        W72982  23.732  14.227   1.667
20087W        W72983  34.129  31.841  10.237
20088W        W72984  23.205  33.472   0.728
20089W        W72985  20.387  24.926   0.228
20090W        W72986   0.379  28.281   9.772
20091W        W72987  28.337  22.576   9.771
20092W        W72988  28.828  32.513   9.943
20093W        W72989  11.539   8.874   2.178
20094W        W72990  13.493  21.624   6.813
20095W        W72991  18.073   8.353   7.967
20096W        W72992  25.877  33.024   7.678
20097W        W72993  18.350   8.382   9.900
20098W        W72994  15.603  14.787   7.632
20099W        W72995  12.526  26.751   0.770
20100W        W72996  10.434   9.220   0.148
20101W        W72997  23.546  17.373   0.429
20102W        W72998  25.273  22.105   0.245
20103W        W72999  12.615  14.554   9.434
20104W        W73000  30.351  32.903   7.121
20105W        W73001  19.102  32.245   0.080
20106W        W73002  15.388  14.386   0.309
20107W        W73003   8.231  32.381   1.041
20108W        W73004  22.983   9.649   9.179
20109W        W73005  10.847  22.514   9.304
20110W        W73006   1.062  15.757   9.123
20111W        W73007   2.912  33.443   8.533
20112W        W73008  27.485  27.425  10.070
20113W        W73009   6.589   3.310   3.310
20114W        W73010  11.881   9.939   1.542
20115W        W73011  23.463  10.476   8.042
20116W        W73012   2.377  11.922   8.415
20117W        W73013  11.091  30.359   0.060
20118W        W73014  11.467   4.342   0.575
20119W        W73015  33.261  21.581   9.109
20120W        W73016  15.256   4.681   1.089
20121W        W73017   4.136  20.305   7.629
20122W        W73018  14.545   8.566   8.734
20123W        W73019   7.533  12.775   9.108
20124W        W73020  26.157  33.276   1.972
20125W        W73021  25.347   1.723   1.058
20126W        W73022  10.437  25.595   8.064
20127W        W73023  28.430  16.589   2.236
20128W        W73024  32.784   8.413   1.156
20129W        W73025  33.372  18.871   9.165
20130W        W73026  25.467   4.341   9.739
20131W        W73027  29.710   3.434   2.952
20132W        W73028   1.961  12.051   1.730
20133W        W73029  15.187  20.421   8.583
20134W        W73030  21.260  16.157   3.564
20135W        W73031  30.826  35.801   2.235
20136W        W73032   4.907  25.183   1.068
20137W        W73033  20.901  28.929   8.186
20138W        W73034  19.351   4.920   8.024
20139W        W73035   2.664  17.880   9.184
20140W        W73036  18.239  23.465   9.478
20141W        W73037   2.960   0.404   0.895
20142W        W73038  30.417   6.926   8.395
20143W        W73039  15.286  35.139   9.577
20144W        W73040  11.720  21.652   9.943
20145W        W73041  15.405   3.443   0.611
20146W        W73042  10.828   8.477   8.151
20147W        W73043  34.162  19.324   0.793
20148W        W73044  22.065   9.528   0.889
20149W        W73045  24.582   3.126  10.320
20150W        W73046   2.014   0.204   0.047
20151W        W73047  34.770  14.565   7.908
20152W        W73048  21.382  35.003   2.003
20153W        W73049  32.760  10.633   0.312
20154W        W73050  21.675   3.853   9.933
20155W        W73051  32.033  11.389   2.763
20156W        W73052  14.754  18.640   2.038
20157W        W73053  30.475  28.521   2.638
20158W        W73054  27.766  16.327   2.018
20159W        W73055  24.606   6.044   9.063
20160W        W73056  18.114  14.391   7.887
20161W        W73057   0.520  14.895  10.057
20162W        W73058  24.614  20.923   1.401
20163W        W73059  34.328  31.740   8.956
20164W        W73060  20.736  18.413   7.668
20165W        W73061  25.729  18.020   0.617
20166W        W73062  27.887  25.343   8.940
20167W        W73063  14.650  18.570   8.422
20168W        W73064  26.389  17.541   0.349
20169W        W73065   1.764   8.100   9.083
20170W        W73066   2.981  15.952   3.100
20171W        W73067  21.844   7.571   1.595
20172W        W73068  19.565  32.386   8.690
20173W        W73069  32.914  28.575   2.421
20174W        W73070  12.244  23.100   8.076
20175W        W73071  31.318  15.947   9.462
20176W        W73072  10.024  19.098   0.551
20177W        W73073  28.381  17.705   2.265
20178W        W73074  28.670  18.657   7.962
20179W        W73075  26.007  14.870   0.536
20180W        W73076  24.193  11.327   8.775
20181W        W73077  33.749  31.189   7.621
20182W        W73078  32.531  20.787   0.445
20183W        W73079  22.803  34.540  10.299
20184W        W73080   2.259   2.503   9.978
20185W        W73081  32.327  33.454   2.593
20186W        W73082   1.619   8.755   2.192
20187W        W73083  12.575  14.053   9.307
20188W        W73084  15.636   9.679   9.577
20189W        W73085  11.713  32.845   9.442
20190W        W73086  19.375  31.910   2.927
20191W        W73087  29.005   9.068   1.566
20192W        W73088  28.919  17.641   9.984
20193W        W73089   7.358  29.766  10.234
20194W        W73090  26.464   7.604   9.691
20195W        W73091  17.782  20.972   0.869
20196W        W73092  27.064  20.450   9.912
20197W        W73093   2.564  27.010   7.984
20198W        W73094  30.512  27.831   1.813
20199W        W73095  25.473   4.201   2.074
20200W        W73096  33.222   1.430   7.865
20201W        W73097   8.018  34.663  10.225
20202W        W73098  34.185  18.414   1.016
20203W        W73099  13.312  16.726   1.653
20204W        W73100  11.350  28.568   3.316
20205W        W73101  22.429  33.101   8.432
20206W        W73102   0.750  29.466   8.871
20207W        W73103  29.250  25.163   9.693
20208W        W73104   9.264  31.613  10.188
20209W        W73105  15.241  29.992   8.984
20210W        W73106  32.765  35.979   9.138
20211W        W73107  16.010  32.951   8.195
20212W        W73108  15.455   9.099   8.380
20213W        W73109   6.312  23.781   3.378
20214W        W73110  14.025   1.963   1.635
20215W        W73111   0.807  29.918   3.457
20216W        W73112   7.810   1.375   9.694
20217W        W73113  26.427  21.823   2.135
20218W        W73114  32.665  27.055   3.269
20219W        W73115  10.935   7.371   1.001
20220W        W73116   7.190  28.181   9.070
20221W        W73117  28.695  23.104   3.521
20222W        W73118  35.343   7.299   2.739
20223W        W73119  20.149  35.098   9.684
20224W        W73120   1.127  25.899   1.584
20225W        W73121   3.493  34.123   8.151
20226W        W73122  25.518  12.982   3.483
20227W        W73123  35.958   8.426   1.318
20228W        W73124  26.145  27.161   8.217
20229W        W73125  20.217   0.752   8.669
20230W        W73126  21.575   9.053   2.222
20231W        W73127   6.856  23.459   2.196
20232W        W73128  34.814   2.462   9.254
20233W        W73129   3.449   6.482   0.629
20234W        W73130  13.148   8.710   9.608
20235W        W73131   0.119  33.601   8.184
20236W        W73132  15.047  10.420   3.150
20237W        W73133  14.598  14.421   2.027
20238W        W73134  19.994  28.549   7.995
20239W        W73135  35.185   0.031   2.620
20240W        W73136  12.526  35.489   2.807
20241W        W73137  25.624  14.547   0.869
20242W        W73138   6.926  16.491   8.129
20243W        W73139  17.535  13.419   2.377
20244W        W73140  27.347  27.698   0.184
20245W        W73141  28.694  34.676   8.699
20246W        W73142   7.892  18.278   2.809
20247W        W73143  20.293  29.201   0.063
20248W        W73144  16.136   5.598   2.509
20249W        W73145  11.864   4.766   0.148
20250W        W73146   7.919   8.352   1.097
20251W        W73147  31.444  22.935   1.442
20252W        W73148   8.037  25.382   1.136
20253W        W73149  25.953  13.111   7.686
20254W        W73150  20.415  31.060   7.973
20255W        W73151  22.234  21.846   8.014
20256W        W73152  31.501  19.854   8.938
20257W        W73153  35.565  32.090   1.296
20258W        W73154  25.200   1.247   2.774
20259W        W73155   5.540   6.550   1.666
20260W        W73156  15.928  22.982   2.219
20261W        W73157  15.761  27.498   1.518
20262W        W73158  14.710  30.890   7.975
20263W        W73159  29.400  19.856   0.994
20264W        W73160  35.500  13.979   2.871
20265W        W73161  14.260   5.390   1.991
20266W        W73162  31.719  10.800   1.142
20267W        W73163  34.489  33.369   2.915
20268W        W73164  12.125  30.884   8.540
20269W        W73165  27.418   2.126   1.075
20270W        W73166   7.488  15.375   2.576
20271W        W73167  22.416  35.540   0.097
20272W        W73168  14.749  35.267   1.388
20273W        W73169  26.183  26.248   7.151
20274W        W73170   5.866  29.305  10.007
20275W        W73171  33.077  33.821   8.307
20276W        W73172  16.714  27.768   8.619
20277W        W73173   5.056  32.121   0.025
20278W        W73174  17.457   0.305   9.822
20279W        W73175   7.815  30.194   0.748
20280W        W73176  17.938  15.381   9.549
20281W        W73177  28.007   5.785   2.240
20282W        W73178  13.372  34.318   2.319
20283W        W73179  33.436  32.544   1.965
20284W        W73180   2.231  35.236  10.207
20285W        W73181  29.345   8.793   7.625
20286W        W73182  11.176  20.766  10.206
20287W        W73183  23.664  22.802   1.220
20288W        W73184  21.513  29.981   0.490
20289W        W73185  28.765  34.937   0.079
20290W        W73186  16.691  35.866   0.095
20291W        W73187  12.857  25.366   1.597
20292W        W73188  35.632  29.592   3.121
20293W        W73189   0.218  22.858   2.788
20294W        W73190  26.783  31.055   3.244
20295W        W73191   3.713  27.424   1.272
20296W        W73192  23.426  27.532   7.276
20297W        W73193   4.903  26.408   9.097
20298W        W73194  19.913  11.057   7.257
20299W        W73195  17.344  30.850   0.796
20300W        W73196  28.569  31.708   0.156
20301W        W73197   1.133  28.191   0.040
20302W        W73198  26.619   4.415   9.526
20303W        W73199  30.795  28.217   9.461
20304W        W73200  19.413  16.022   9.202
20305W        W73201  10.671  29.239   2.800
20306W        W73202   8.005   7.157   2.209
20307W        W73203   8.219  34.164   8.815
20308W        W73204  19.767   9.047   2.787
20309W        W73205   4.476  14.992  10.296
20310W        W73206  11.472  27.360   0.873
20311W        W73207  19.217  24.874   0.604
20312W        W73208   4.241   3.928   1.837
20313W        W73209   5.210  14.545   8.619
20314W        W73210  31.033  30.362   8.592
20315W        W73211   4.532  21.411   9.078
20316W        W73212  31.961  29.222   9.903
20317W        W73213  14.750  18.984   8.005
20318W        W73214   8.444  20.698   8.094
20319W        W73215  25.795   8.409   2.943
20320W        W73216  18.580  10.827   1.404
20321W        W73217   1.219   4.150   8.958
20322W        W73218  25.177  28.098   1.466
20323W        W73219  15.772  11.300   8.372
20324W        W73220  17.118   4.959   2.721
20325W        W73221  34.804  27.101   0.659
20326W        W73222  23.254  22.470   9.583
20327W        W73223  31.172  35.937   1.834
20328W        W73224  33.346  34.055   0.301
20329W        W73225  16.234  18.421   9.498
20330W        W73226  14.282   1.633   2.440
20331W        W73227  10.329  22.479   6.796
20332W        W73228   8.329  25.271   9.186
20333W        W73229  12.984  24.656   2.975
20334W        W73230  10.514  13.042   8.480
20335W        W73231  25.927  16.932   7.654
20336W        W73232  16.850  24.948   8.281
20337W        W73233  15.790  22.929   8.736
20338W        W73234   0.555  13.545   9.102
20339W        W73235  31.566  33.650   6.913
20340W        W73236  18.600  15.835   9.014
20341W        W73237   8.508  34.617  10.168
20342W        W73238  29.231   6.770   7.559
20343W        W73239   0.683  15.633   3.240
20344W        W73240  17.030   6.198  10.195
20345W        W73241   6.784  17.896   8.624
20346W        W73242  24.353   4.185   1.887
20347W        W73243   6.125  14.446   9.704
20348W        W73244  25.447  18.507   9.740
20349W        W73245  13.659  20.807   8.674
20350W        W73246  22.761   5.830   8.691
20351W        W73247  21.783  21.212   7.375
20352W        W73248   5.171  34.187   7.958
20353W        W73249   3.768   2.898   7.730
20354W        W73250   1.349   3.453   9.439
20355W        W73251  21.904  26.647   2.801
20356W        W73252  28.029  15.816   8.966
20357W        W73253  30.909   5.821   0.178
20358W        W73254   8.051   5.521   2.925
20359W        W73255  17.075  24.465   9.260
20360W        W73256  32.673   9.139   8.136
20361W        W73257  17.563  13.735   9.169
20362W        W73258  21.312  31.981   9.592
20363W        W73259   4.891  11.951   0.835
20364W        W73260  22.270  18.651   1.331
20365W        W73261   3.938  35.036   9.180
20366W        W73262  15.380  34.613   8.703
20367W        W73263  19.072  28.415   7.745
20368W        W73264  26.343   1.571   1.166
20369W        W73265  24.319  34.209   9.374
20370W        W73266  17.736  17.661   8.265
20371W        W73267   1.655  27.692   2.090
20372W        W73268   7.866   7.018   9.362
20373W        W73269  22.577  26.303   2.829
20374W        W73270  28.411  16.211   8.225
20375W        W73271  18.829  31.852   6.919
20376W        W73272  35.234  32.237   0.105
20377W        W73273   7.568  25.605   1.241
20378W        W73274  19.436  27.845   0.495
20379W        W73275   8.010  35.345   9.057
20380W        W73276  32.541  33.812  10.257
20381W        W73277   6.390   2.226   1.425
20382W        W73278  35.871  24.130  10.244
20383W        W73279  14.697  33.547   8.034
20384W        W73280  14.886   7.219   1.523
20385W        W73281  21.498  25.910   0.086
20386W        W73282  32.305  21.187   2.734
20387W        W73283  20.351   4.285   0.181
20388W        W73284  20.869   3.486   2.146
20389W        W73285  29.610  35.093   2.934
20390W        W73286   1.761  19.797   3.312
20391W        W73287  23.550  16.571  10.315
20392W        W73288  18.203  29.700   2.722
20393W        W73289   3.722  32.482   9.840
20394W        W73290  33.342   3.300   2.483
20395W        W73291  33.660  28.622   1.117
20396W        W73292  30.920  35.591   3.291
20397W        W73293  19.687  10.909   9.378
20398W        W73294  25.733   0.989   7.669
20399W        W73295  33.135  16.263   2.428
20400W        W73296  23.988  17.745  10.021
20401W        W73297  23.136  24.700   9.197
20402W        W73298  11.089  10.673   8.781
20403W        W73299  14.932  14.760   1.111
20404W        W73300  25.824  31.735   9.773
20405W        W73301   3.771  35.585   7.351
20406W        W73302  24.698  25.662   3.450
20407W        W73303  29.306  30.673  10.309
20408W        W73304  11.336   8.100  10.142
20409W        W73305  16.655  18.230   1.395
20410W        W73306  22.083  27.676   2.915
20411W        W73307   4.425   1.041   8.967
20412W        W73308  30.241  12.773   1.215
20413W        W73309  11.590  32.290   2.181
20414W        W73310   9.884   3.005   2.906
20415W        W73311  22.467  20.277   1.705
20416W        W73312  20.408  23.095   9.443
20417W        W73313  19.337  23.552   2.568
20418W        W73314   9.004  33.156   2.508
20419W        W73315  27.647   3.213   2.911
20420W        W73316   3.179  34.984   1.927
20421W        W73317   9.955  14.492   7.549
20422W        W73318   7.630   8.768   8.547
20423W        W73319  17.380   4.829  10.052
20424W        W73320  35.350   4.237   0.448
20425W        W73321  10.259  23.977   1.474
20426W        W73322   7.332   3.723   2.930
20427W        W73323   1.114  10.181   0.037
20428W        W73324   3.693  28.398   8.816
20429W        W73325   3.013   7.582   8.558
20430W        W73326  27.152   9.494   8.979
20431W        W73327   6.240   0.291   0.811
20432W        W73328   2.219   1.079   7.564
20433W        W73329   1.554  29.926   2.470
20434W        W73330  20.672  19.379   8.536
20435W        W73331   4.869   6.399  10.255
20436W        W73332   7.323  16.147  10.004
20437W        W73333   4.152  23.782   1.389
20438W        W73334  13.619  33.825   0.004
20439W        W73335   7.872   5.878   2.030
20440W        W73336  12.521  10.087  10.271
20441W        W73337  32.063   1.402   1.082
20442W        W73338  29.607  32.229   9.820
20443W        W73339  19.105   5.032  10.151
20444W        W73340   8.944  28.920   8.776
20445W        W73341  17.611  23.915   8.691
20446W        W73342  20.880  14.586   0.745
20447W        W73343  11.189  22.605   0.438
20448W        W73344  20.929  11.561   2.285
20449W        W73345  15.697  27.527   2.553
20450W        W73346  26.606  27.078   0.311
20451W        W73347  10.394   2.457   9.557
20452W        W73348  17.768  34.385   2.413
20453W        W73349  32.879  24.554   9.763
20454W        W73350  27.410  13.670  10.040
20455W        W73351  32.821  29.510   2.768
20456W        W73352  32.989  11.281   2.320
20457W        W73353  32.735   4.570   2.212
20458W        W73354   9.456   0.893   8.396
20459W        W73355  19.996  25.964   2.987
20460W        W73356  29.984  19.820   7.948
20461W        W73357  28.760  33.804   9.026
20462W        W73358  14.285  30.726   9.153
20463W        W73359  33.501  24.069   8.713
20464W        W73360  31.831   7.080   9.285
20465W        W73361  21.880   4.812   2.268
20466W        W73362  30.446  27.250   2.784
20467W        W73363  20.561  22.866  10.198
20468W        W73364  15.167  13.703  10.007
20469W        W73365   3.054  12.437   4.133
20470W        W73366  21.924  27.016   9.762
20471W        W73367  18.832  16.864   9.138
20472W        W73368   3.316  24.111   2.267
20473W        W73369  30.483   6.949   1.445
20474W        W73370  20.249   9.776   8.430
20475W        W73371   8.673   6.967  10.007
20476W        W73372  27.568  31.510   8.912
20477W        W73373  34.230  26.998   0.574
20478W        W73374  31.960  17.070   9.374
20479W        W73375  10.628  24.920   0.693
20480W        W73376  19.536  22.539   1.717
20481W        W73377  15.810  16.809   0.408
20482W        W73378  26.370   3.998  10.129
20483W        W73379  33.680  13.139   0.244
20484W        W73380  33.541  12.184   2.906
20485W        W73381  20.428  26.800  10.318
20486W        W73382   6.015   7.981   2.150
20487W        W73383  19.259  32.379   8.214
20488W        W73384  26.935   9.803   9.287
20489W        W73385   8.375  16.112   0.945
20490W        W73386   8.228  17.681   9.779
20491W        W73387  15.920   9.134   2.575
20492W        W73388   4.708  17.131   8.014
20493W        W73389  32.479  11.634   0.950
20494W        W73390  34.443   6.875   8.519
20495W        W73391  18.262  25.957   9.745
20496W        W73392  22.133   0.984   0.201
20497W        W73393  11.767   9.665   0.240
20498W        W73394   0.443  14.593   8.333
20499W        W73395  22.949  22.745   2.716
20500W        W73396  24.646  35.887   9.628
20501W        W73397  30.144  32.225   9.725
20502W        W73398  28.880   7.471   8.347
20503W        W73399  15.610  35.902   0.795
20504W        W73400   7.930  30.571   1.725
20505W        W73401  19.064  13.415   2.929
20506W        W73402   2.413  26.717   2.363
20507W        W73403  14.070  14.545  10.206
20508W        W73404  35.387  13.606  10.288
20509W        W73405  23.462   9.277   7.619
20510W        W73406  20.739  14.355   2.791
20511W        W73407  35.581  27.205   9.868
20512W        W73408  31.732  20.007   9.421
20513W        W73409   5.758  16.034   3.227
20514W        W73410  12.231  22.980   2.386
20515W        W73411  19.352  24.930   2.608
20516W        W73412  14.240  32.663   9.239
20517W        W73413   0.574  17.389   0.401
20518W        W73414  33.112  20.795   2.003
20519W        W73415  35.237  22.228   1.745
20520W        W73416  15.520  35.372   7.864
20521W        W73417  26.946  13.927   8.760
20522W        W73418  22.587  28.685   1.641
20523W        W73419  19.479  17.769   2.402
20524W        W73420   0.708  23.747   1.508
20525W        W73421  28.491   4.127   0.182
20526W        W73422   2.886  26.213  10.311
20527W        W73423   7.316   0.761   1.029
20528W        W73424  28.909  22.937   1.648
20529W        W73425  34.833   3.525   3.317
20530W        W73426  27.878   2.725   2.891
20531W        W73427  35.812  14.368   9.626
20532W        W73428  16.850  17.794   1.212
20533W        W73429  22.091  11.775  10.070
20534W        W73430  31.331   7.860   0.815
20535W        W73431   2.134  14.127   0.269
20536W        W73432  24.188  12.015   3.301
20537W        W73433  25.086  14.915   1.982
20538W        W73434  35.994  32.497   9.824
20539W        W73435  22.235  10.450   9.537
20540W        W73436  18.571   4.953   2.289
20541W        W73437  35.152  20.172   8.629
20542W        W73438  31.728  11.887   1.449
20543W        W73439   9.899  20.712   9.165
20544W        W73440  30.307  32.469   2.064
20545W        W73441   0.959   7.744   8.141
20546W        W73442  27.027  24.773   8.600
20547W        W73443  26.122   7.533   1.962
20548W        W73444  21.219  23.460   3.462
20549W        W73445  16.997  27.353   8.232
20550W        W73446  29.519  11.165   2.601
20551W        W73447  31.420   9.038   9.198
20552W        W73448   6.619  24.560   1.038
20553W        W73449   5.992   5.409   8.673
20554W        W73450  11.981  24.102   0.810
20555W        W73451  19.655  31.091  10.209
20556W        W73452  29.172  13.895   1.685
20557W        W73453   5.289   0.674   1.740
20558W        W73454   2.829   9.031   3.674
20559W        W73455  19.355  30.746   0.197
20560W        W73456  29.051  28.266   2.318
20561W        W73457  30.461   5.254   2.178
20562W        W73458  13.213  35.773   0.705
20563W        W73459  21.863  26.548   3.385
20564W        W73460  17.376  23.427   0.255
20565W        W73461  16.612  11.799   0.977
20566W        W73462  12.240  22.957   1.419
20567W        W73463  23.123  30.064   1.492
20568W        W73464  28.539  17.549   6.997
20569W        W73465  19.383  25.241   7.731
20570W        W73466  14.911  24.812   1.634
20571W        W73467   9.762  32.240   0.093
20572W        W73468   7.928  35.780   9.340
20573W        W73469  17.988  26.928  10.031
20574W        W73470  18.461   7.459   3.111
20575W        W73471  30.028   5.499   1.425
20576W        W73472  15.300  30.754   9.169
20577W        W73473  26.333  29.966   1.357
20578W        W73474  24.662  32.966   8.863
20579W        W73475  34.153  20.366   9.540
20580W        W73476  33.891  18.428   0.377
20581W        W73477  18.235  26.133   8.379
20582W        W73478  31.785  12.518   9.556
20583W        W73479   0.815  15.390   8.794
20584W        W73480  31.103   4.855   1.346
20585W        W73481  29.315   4.176   7.926
20586W        W73482  32.520  23.329   0.343
20587W        W73483   3.296   8.153   7.600
20588W        W73484  30.835  11.152   1.427
20589W        W73485  24.917  26.466   1.527
20590W        W73486  23.426   8.669   0.287
20591W        W73487   1.929  27.282   8.430
20592W        W73488  34.985   8.090   8.339
20593W        W73489   0.103   7.968   9.374
20594W        W73490   5.394  27.841   3.434
20595W        W73491  16.119  22.390   1.629
20596W        W73492  35.434   3.372  10.257
20597W        W73493   3.072  12.832   9.199
20598W        W73494  30.246   5.458   0.940
20599W        W73495  15.382  16.298   9.370
20600W        W73496  14.337  34.865   9.488
20601W        W73497  20.188  24.036   8.881
20602W        W73498  11.338  21.422   0.449
20603W        W73499   1.917  25.303  10.120
20604W        W73500  10.654  25.027   7.802
20605W        W73501  29.686  18.821   1.541
20606W        W73502  21.117  11.841  10.152
20607W        W73503  26.185  10.840   0.984
20608W        W73504  25.378  27.208   7.473
20609W        W73505  16.452  23.379   7.842
20610W        W73506  21.159  28.497   7.576
20611W        W73507  13.637  29.566   8.795
20612W        W73508   1.635  26.047   1.202
20613W        W73509   4.958  14.529   2.512
20614W        W73510   7.359  30.625   8.413
20615W        W73511   6.064  12.771   7.445
20616W        W73512  35.525   7.212   1.716
20617W        W73513  18.549  21.546   2.912
20618W        W73514  29.991  29.987   3.183
20619W        W73515   0.474   9.541   3.383
20620W        W73516  12.529  30.660   2.716
20621W        W73517   1.448  30.914   2.037
20622W        W73518  31.702   2.405   2.926
20623W        W73519  15.439  20.709   2.557
20624W        W73520   3.782  22.130   2.611
20625W        W73521  34.778  33.880   2.194
20626W        W73522  15.229   2.051   9.841
20627W        W73523   5.525  12.699  10.336
20628W        W73524  24.109  19.304   0.816
20629W        W73525   2.701  27.500   3.812
20630W        W73526  26.009  32.031   7.715
20631W        W73527  20.880  27.837   2.092
20632W        W73528   9.455  11.212   0.700
20633W        W73529  15.804  28.461   2.828
20634W        W73530  23.331  32.771   2.284
20635W        W73531  33.889  34.423   8.959
20636W        W73532  26.359  19.512   8.335
20637W        W73533   0.373  34.666   2.893
20638W        W73534  35.245  27.781   0.766
20639W        W73535  36.014   9.388   8.455
20640W        W73536  17.342  10.311   0.027
20641W        W73537  21.379  29.527   3.932
20642W        W73538   6.759  33.211   0.170
20643W        W73539  11.250  19.603   1.132
20644W        W73540  35.135  29.498   1.343
20645W        W73541  30.469  24.778   9.597
20646W        W73542  30.575  34.417   1.166
20647W        W73543  11.969  29.755   8.112
20648W        W73544  35.670  26.999   2.735
20649W        W73545   7.896  27.016   9.978
20650W        W73546  21.096   2.399   7.596
20651W        W73547   2.310  34.083   8.991
20652W        W73548  31.551  18.874   1.799
20653W        W73549  35.990  11.855   2.820
20654W        W73550  29.567  17.954   9.541
20655W        W73551  29.064  31.154   2.238
20656W        W73552  26.652  16.621   8.201
20657W        W73553  20.694   7.937   0.337
20658W        W73554   8.233   1.492   0.578
20659W        W73555   0.632  20.166   0.814
20660W        W73556  17.417   4.666   9.230
20661W        W73557  25.496  14.686   1.835
20662W        W73558  29.807   1.194  10.076
20663W        W73559  20.194  33.045   8.607
20664W        W73560  32.952  16.008   1.326
20665W        W73561  25.880   8.568   1.498
20666W        W73562  24.509   2.336   8.783
20667W        W73563  30.415   9.705   9.712
20668W        W73564  16.931  33.876   0.047
20669W        W73565  31.328  35.716  10.108
20670W        W73566  33.097  21.176   8.882
20671W        W73567  22.494  26.749   1.936
20672W        W73568  33.874  24.242  10.019
20673W        W73569   6.937  20.419  10.248
20674W        W73570  25.902  19.548   8.069
20675W        W73571  11.735  27.480   9.225
20676W        W73572  32.382  29.664  10.319
20677W        W73573  34.057  24.431   1.853
20678W        W73574  18.231  24.951   1.695
20679W        W73575  15.480  14.895   0.302
20680W        W73576  19.483  21.439   0.949
20681W        W73577  29.896  11.656   0.618
20682W        W73578  25.573  16.280   2.064
20683W        W73579  28.864  17.774   1.507
20684W        W73580   1.064   5.898   8.629
20685W        W73581  28.710  21.112   9.067
20686W        W73582  14.741   0.244   8.765
20687W        W73583   0.725   4.143   2.004
20688W        W73584   6.824  21.047   7.539
20689W        W73585  18.469   3.667   1.690
20690W        W73586  27.226  23.707   2.630
20691W        W73587  20.426   9.964   7.974
20692W        W73588   4.476  24.597   2.921
20693W        W73589  21.526   6.996   2.227
20694W        W73590   3.070   6.803   0.389
20695W        W73591  33.975  20.283   0.669
20696W        W73592  17.032  24.002  10.315
20697W        W73593  18.996   3.001  10.166
20698W        W73594  30.593  15.731   1.441
20699W        W73595  33.051   4.382   7.257
20700W        W73596   0.165  22.988   0.320
20701W        W73597  35.735   0.131   2.649
20702W        W73598  25.962  23.698   1.326
20703W        W73599  19.978  10.396   2.914
20704W        W73600  12.614  33.697   7.570
20705W        W73601   3.465  14.982   8.941
20706W        W73602  15.367  10.692   8.771
20707W        W73603   4.548  28.932   8.199
20708W        W73604   9.923   5.758   2.314
20709W        W73605  31.960  18.715   1.380
20710W        W73606  26.187  34.224   1.484
20711W        W73607  18.711  29.651   7.390
20712W        W73608  24.627  16.640   3.595
20713W        W73609  13.210  11.146   9.397
20714W        W73610  24.042  35.095   7.508
20715W        W73611  19.668   2.202   1.728
20716W        W73612  21.101  11.877   0.650
20717W        W73613  17.645  29.856   8.552
20718W        W73614  31.377  11.347   9.346
20719W        W73615  33.999  30.098   3.352
20720W        W73616   2.626  25.188   9.427
20721W        W73617  29.468  10.217   7.735
20722W        W73618  21.005  23.790   0.863
20723W        W73619  27.168  17.998   3.222
20724W        W73620   4.380  29.014   9.707
20725W        W73621  17.566   3.751   1.208
20726W        W73622  10.553  23.272   2.046
20727W        W73623  25.949  11.953   0.361
20728W        W73624  26.562  19.988   2.110
20729W        W73625   0.703  17.869   9.268
20730W        W73626  11.056  25.547   9.709
20731W        W73627   1.826   9.727   3.226
20732W        W73628  31.598  20.966   0.390
20733W        W73629  22.231  33.192   9.453
20734W        W73630   3.099  12.319   1.868
20735W        W73631  34.129  21.032   3.258
20736W        W73632  28.417  28.223   1.569
20737W        W73633   4.284   7.117   8.340
20738W        W73634  30.247  34.844   8.500
20739W        W73635  27.258   2.569   1.911
20740W        W73636  10.223   1.644   2.161
20741W        W73637  24.275   1.958   1.110
20742W        W73638   4.492   9.763   2.044
20743W        W73639  28.202  23.249   1.923
20744W        W73640  13.170  18.501   1.698
20745W        W73641  35.781  14.412   2.987
20746W        W73642   8.348  20.864   1.478
20747W        W73643  23.998   2.542   9.504
20748W        W73644   7.783   1.761   9.016
20749W        W73645  26.271   6.768   9.734
20750W        W73646   3.960   7.827   2.555
20751W        W73647  30.841   2.146   1.180
20752W        W73648  22.210   9.471  10.336
20753W        W73649  21.689   2.036   8.740
20754W        W73650  23.564   8.244   0.943
20755W        W73651  19.625   0.636   8.351
20756W        W73652  13.861   9.256   2.943
20757W        W73653  30.615  18.390   9.101
20758W        W73654  35.269   3.474   8.537
20759W        W73655  29.959  24.567   7.268
20760W        W73656  13.464  13.159   8.073
20761W        W73657  25.129   0.239   8.073
20762W        W73658   9.063  25.444   6.946
20763W        W73659   2.206   3.967   8.691
20764W        W73660   7.662  26.098   3.264
20765W        W73661  31.510  33.036   9.399
20766W        W73662  34.862  33.329   9.185
20767W        W73663  35.203  25.301  10.116
20768W        W73664   7.222  12.200   1.109
20769W        W73665  22.587  16.102   9.758
20770W        W73666  15.067  31.158   9.936
20771W        W73667  28.642  30.508   9.125
20772W        W73668  27.592  12.549   9.570
20773W        W73669  14.059  23.440   9.337
20774W        W73670  27.527  14.960   1.916
20775W        W73671   9.873  33.997   2.414
20776W        W73672  29.141  33.467   8.306
20777W        W73673  33.601   6.466   8.733
20778W        W73674  10.323  31.092   9.697
20779W        W73675  34.417  16.655   0.777
20780W        W73676  34.297  34.187   9.945
20781W        W73677   0.390   0.272   8.969
20782W        W73678  20.678   8.329   3.301
20783W        W73679   8.743  34.949   2.857
20784W        W73680  33.174  18.543   3.857
20785W        W73681  26.652  27.034   9.568
20786W        W73682  12.464  11.941   9.499
20787W        W73683  18.121   5.149   7.460
20788W        W73684  35.773  15.487   0.947
20789W        W73685  35.254  15.965   8.470
20790W        W73686  25.536  12.673   0.891
20791W        W73687  34.042   9.399   2.962
20792W        W73688  32.131  17.777   2.457
20793W        W73689  25.257   2.474   7.395
20794W        W73690  12.980  22.451   2.696
20795W        W73691  22.610  10.011   3.237
20796W        W73692  16.356  16.373   2.649
20797W        W73693   8.164   6.965   7.892
20798W        W73694  26.035   1.676   2.825
20799W        W73695   8.039  23.408   1.147
20800W        W73696  16.294  15.010  10.087
20801W        W73697  33.557  23.087   2.895
20802W        W73698  34.104   3.960   8.288
20803W        W73699  32.580  32.883   7.713
20804W        W73700  32.177  12.136   1.776
20805W        W73701  11.786   3.895   0.417
20806W        W73702   0.991  11.785   3.152
20807W        W73703  23.643  35.878   8.004
20808W        W73704  15.289   4.456   8.974
20809W        W73705  14.986  17.132   0.502
20810W        W73706  32.366   9.364   7.174
20811W        W73707  12.809   2.036   2.192
20812W        W73708   9.854   3.708   8.723
20813W        W73709  12.041  21.015   9.983
20814W        W73710  13.878   5.846   7.859
20815W        W73711  32.959  13.190   8.395
20816W        W73712  31.456   0.171   8.920
20817W        W73713   5.037   6.647   1.579
20818W        W73714  22.096   5.092   1.921
20819W        W73715   5.271  10.404   3.402
20820W        W73716  21.979  10.031   1.020
20821W        W73717  10.372  15.239   0.656
20822W        W73718  24.275  31.851   2.106
20823W        W73719  11.489  14.032   0.977
20824W        W73720  29.280  34.749   2.852
20825W        W73721  24.435  19.781   3.623
20826W        W73722   9.442  22.215   2.159
20827W        W73723  13.313  34.406   9.339
20828W        W73724  33.090  23.660   1.012
20829W        W73725   1.379  18.960   1.176
20830W        W73726  16.366   6.075   2.250
20831W        W73727   1.980  34.056   2.151
20832W        W73728   3.977   1.516  10.119
20833W        W73729  17.568  32.946   9.635
20834W        W73730  22.972  15.925   0.187
20835W        W73731  12.044  16.639   1.120
20836W        W73732  11.189   8.036   1.453
20837W        W73733  32.264   1.666  10.162
20838W        W73734   2.075  34.269   0.029
20839W        W73735  10.831  26.958  10.117
20840W        W73736   9.783  22.178   0.817
20841W        W73737  30.321  30.894   7.538
20842W        W73738  27.961   5.292   0.405
20843W        W73739  12.324   0.931   2.475
20844W        W73740  32.277  14.142   8.642
20845W        W73741  35.813  15.918   1.822
20846W        W73742   5.535   8.610   2.813
20847W        W73743  28.963  27.620   2.993
20848W        W73744  23.242  34.747   8.409
20849W        W73745  21.054  10.217   8.348
20850W        W73746   4.515  11.235   9.303
20851W        W73747  14.761  33.722   3.102
20852W        W73748   7.154  26.865   3.202
20853W        W73749  19.579  29.914   8.891
20854W        W73750   3.637  29.187   0.180
20855W        W73751   4.671  23.183   1.749
20856W        W73752   8.558   7.521   3.563
20857W        W73753  32.788  12.527   2.803
20858W        W73754   5.722  16.497   1.401
20859W        W73755  30.283   8.283   8.611
20860W        W73756  21.090   3.241   2.547
20861W        W73757   5.096  19.460   8.733
20862W        W73758   9.660  21.861   1.725
20863W        W73759  14.783  25.272   8.551
20864W        W73760   6.656  27.128   8.275
20865W        W73761  29.630   7.875   2.327
20866W        W73762  28.654   8.378   8.587
20867W        W73763  26.676   7.305   0.681
20868W        W73764  26.838  10.346   8.099
20869W        W73765  13.559  27.322   2.827
20870W        W73766   1.468  22.286   2.696
20871W        W73767  24.304  21.242   2.106
20872W        W73768  27.929   2.363   1.097
20873W        W73769  13.083  35.938   1.185
20874W        W73770   7.239  26.882   7.836
20875W        W73771  16.862  17.131   2.922
20876W        W73772  31.684  15.252   0.899
20877W        W73773  15.380   7.326   7.973
20878W        W73774  19.360  24.845   3.127
20879W        W73775  28.028  19.245   2.816
20880W        W73776  22.245  25.247   8.697
20881W        W73777   3.387  29.959   2.187
20882W        W73778  35.143  26.123   1.458
20883W        W73779   9.948  35.002   0.649
20884W        W73780   5.989  27.491   9.563
20885W        W73781  21.680  17.125   0.788
20886W        W73782   5.588  27.882   1.108
20887W        W73783  12.088  19.952   9.759
20888W        W73784   6.348   2.109   8.940
20889W        W73785  17.480  13.217   1.781
20890W        W73786  33.197  17.537  10.057
20891W        W73787   4.128  20.627   2.307
20892W        W73788   6.203   5.214   7.507
20893W        W73789  32.398  16.768   9.562
20894W        W73790  31.969  20.397   8.506
20895W        W73791  30.839   4.249   9.277
20896W        W73792   7.602   5.068   8.314
20897W        W73793  24.054  24.585   7.944
20898W        W73794  27.827   3.785   3.874
20899W        W73795  23.595  26.296   9.670
20900W        W73796  18.713  16.523   0.840
20901W        W73797  17.667  33.037   3.146
20902W        W73798   6.366  11.215   1.322
20903W        W73799   7.564  11.426   9.132
20904W        W73800  35.115  23.115   1.213
20905W        W73801  23.612  12.957  10.202
20906W        W73802  28.546  19.295   2.784
20907W        W73803   0.747  15.407   1.127
20908W        W73804   7.753  34.343   0.555
20909W        W73805  19.492  28.736   3.404
20910W        W73806   5.233  32.079   9.839
20911W        W73807  11.102  13.332   9.542
20912W        W73808  11.369  26.567   2.449
20913W        W73809  15.683  22.179   1.859
20914W        W73810  24.801  33.301   2.593
20915W        W73811  20.426  17.934   9.598
20916W        W73812   6.502  23.123   2.130
20917W        W73813   2.246  17.111   3.364
20918W        W73814   9.839  12.223   7.803
20919W        W73815  35.192  24.500   8.347
20920W        W73816   1.539  12.989   1.587
20921W        W73817  14.442  14.369   8.707
20922W        W73818  26.961   7.828   8.471
20923W        W73819   3.438  21.431   2.178
20924W        W73820  12.646  11.872   9.041
20925W        W73821   0.871  11.352   2.369
20926W        W73822  16.092   7.483   9.665
20927W        W73823  11.457   6.713   8.289
20928W        W73824   4.631  27.746   0.109
20929W        W73825  24.885  13.600   3.208
20930W        W73826  27.395   6.686   7.800
20931W        W73827  11.267   5.509   0.351
20932W        W73828  27.699  33.804   7.585
20933W        W73829  13.999  11.661   9.154
20934W        W73830  14.828   4.165   8.265
20935W        W73831  22.539  22.710   2.346
20936W        W73832  29.771  28.021   9.765
20937W        W73833  32.948  30.237   0.782
20938W        W73834  24.609   8.279   0.690
20939W        W73835  13.182   3.120   7.706
20940W        W73836  11.263  21.293   8.445
20941W        W73837   1.707  21.581   8.561
20942W        W73838   0.585  22.001   0.611
20943W        W73839  32.517  35.883  10.071
20944W        W73840   2.458  33.160   8.712
20945W        W73841  35.975  33.482   9.799
20946W        W73842  22.292  29.615   1.922
20947W        W73843  19.347  24.448   0.374
20948W        W73844   4.227  21.563   1.309
20949W        W73845  11.838  25.362   1.500
20950W        W73846  26.778   7.773   0.885
20951W        W73847  33.614  21.504   2.562
20952W        W73848  20.847  12.325   0.517
20953W        W73849   2.155  35.268   7.213
20954W        W73850  28.567  23.959   0.213
20955W        W73851   0.790  35.769   2.991
20956W        W73852  11.210  12.691   8.753
20957W        W73853  23.363   1.173   8.584
20958W        W73854   9.070  27.971   2.021
20959W        W73855  18.189  35.090   8.885
20960W        W73856  18.499  11.231   8.523
20961W        W73857   1.208  14.948   2.205
20962W        W73858  24.469  24.753   8.188
20963W        W73859  15.318  29.780   2.819
20964W        W73860  19.339  13.862   8.833
20965W        W73861  14.813   6.696   2.639
20966W        W73862   6.882   2.337   2.793
20967W        W73863  16.130  18.941   1.911
20968W        W73864  25.657  33.594   1.446
20969W        W73865   9.165   3.371   8.725
20970W        W73866  10.673  15.087   2.545
20971W        W73867   9.951  20.552   2.311
20972W        W73868   9.623  30.687   7.690
20973W        W73869  22.438  27.151   9.834
20974W        W73870   3.370   2.483   9.155
20975W        W73871  35.243  26.860   3.391
20976W        W73872  16.851   8.254   7.512
20977W        W73873  11.624  13.340  10.004
20978W        W73874  29.887   7.218   7.440
20979W        W73875   7.172   6.550   2.386
20980W        W73876   4.207  28.735   0.465
20981W        W73877   2.913  20.827   9.193
20982W        W73878  11.801  35.072   9.299
20983W        W73879  11.303   2.660   3.015
20984W        W73880  18.739  15.542   7.548
20985W        W73881   3.445  26.388   8.863
20986W        W73882   4.908   9.988   0.008
20987W        W73883  25.847  23.197   9.099
20988W        W73884   7.710  18.528   8.997
20989W        W73885  23.188  31.392   2.888
20990W        W73886  29.427  20.399   1.026
20991W        W73887  31.465  30.245   8.267
20992W        W73888   1.771  10.586   8.745
20993W        W73889   0.147  34.409   1.457
20994W        W73890   4.520  35.603   1.030
20995W        W73891  30.106   9.488   1.279
20996W        W73892   2.829   4.432   0.091
20997W        W73893   9.863  10.284   2.829
20998W        W73894   8.482  19.724   1.034
20999W        W73895  35.955  22.054   9.770
21000W        W73896  28.444  33.015   1.700
21001W        W73897  34.762  17.866   9.389
21002W        W73898  29.020  22.599   0.195
21003W        W73899  18.110  31.577   9.736
21004W        W73900   1.369   4.450   2.731
21005W        W73901  30.763   9.992   9.883
21006W        W73902  25.468  35.112  10.149
21007W        W73903  31.721  26.604   7.831
21008W        W73904  29.956  35.762   1.152
21009W        W73905   8.372  24.797   0.479
21010W        W73906  14.597  34.645   0.596
21011W        W73907   6.433   9.027   8.126
21012W        W73908  30.310  19.318   3.117
21013W        W73909  18.213  24.555   0.838
21014W        W73910  23.461   8.588   8.166
21015W        W73911  19.008  16.962   8.563
21016W        W73912  32.361  30.424   1.770
21017W        W73913   0.452  20.620   0.074
21018W        W73914  28.818  18.241  10.308
21019W        W73915  14.560  28.763   9.288
21020W        W73916  29.334  22.727   3.011
21021W        W73917  35.623  29.725   0.645
21022W        W73918  14.520  10.829   8.034
21023W        W73919  33.718   2.095   9.273
21024W        W73920  18.078  15.688   2.179
21025W        W73921  35.005  31.533   9.293
21026W        W73922   3.742  15.862   9.181
21027W        W73923  16.582   3.240   7.763
21028W        W73924  32.341  32.015   1.873
21029W        W73925   0.713  16.688   2.116
21030W        W73926  30.180  13.688   2.285
21031W        W73927  13.244   0.332   8.519
21032W        W73928  10.312   0.778   0.929
21033W        W73929  16.187  14.078   2.937
21034W        W73930   2.266   8.898   2.422
21035W        W73931  33.332   2.444   0.183
21036W        W73932  10.020  22.701   7.732
21037W        W73933  29.983  15.218   0.724
21038W        W73934   2.086  10.503   1.213
21039W        W73935  20.182  26.315   3.860
21040W        W73936  30.670  21.620   0.059
21041W        W73937   6.714  28.204   1.881
21042W        W73938  31.646  34.267   1.786
21043W        W73939  28.975  32.150   3.002
21044W        W73940   8.394  16.501   9.876
21045W        W73941  31.971  13.293   2.789
21046W        W73942  24.339  31.246   0.245
21047W        W73943   9.322   5.077   2.760
21048W        W73944  20.311  15.820   7.581
21049W        W73945   4.992  19.890   3.132
21050W        W73946  21.607  33.796   2.239
21051W        W73947   9.375  29.931   8.150
21052W        W73948  21.261  24.201   1.421
21053W        W73949   2.540   2.042   1.550
21054W        W73950  10.024  29.249   1.620
21055W        W73951  32.111  17.116  10.334
21056W        W73952   7.263   1.639   8.155
21057W        W73953   1.260   0.058   0.426
21058W        W73954  32.345  21.723   1.460
21059W        W73955  15.194   6.770   3.057
21060W        W73956  21.464  15.013   8.673
21061W        W73957  17.334  31.284   1.528
21062W        W73958  28.918  26.152   0.403
21063W        W73959  29.568  31.292   7.851
21064W        W73960  18.872  14.406   1.763
21065W        W73961   5.251  23.184   8.744
21066W        W73962   7.439  14.401   9.575
21067W        W73963  34.862  17.382   9.976
21068W        W73964  17.951  31.444   7.926
21069W        W73965   2.976   6.449   1.281
21070W        W73966  12.385   3.294   1.570
21071W        W73967  15.383  33.614   8.668
21072W        W73968  11.304   6.422   8.811
21073W        W73969   8.306   0.086   7.176
21074W        W73970  12.553  16.654   2.523
21075W        W73971  28.757  28.515   3.156
21076W        W73972  29.296  25.688   1.677
21077W        W73973   3.768  34.814   8.734
21078W        W73974   5.597   2.773   0.231
21079W        W73975  20.590  28.044  10.215
21080W        W73976  14.252   4.249   1.757
21081W        W73977  26.485   7.802   9.209
21082W        W73978  27.199  15.459   0.151
21083W        W73979  27.824  35.006   0.941
21084W        W73980   9.049   1.692   8.399
21085W        W73981   5.063  27.701   8.831
21086W        W73982  23.610  35.331   2.467
21087W        W73983  24.513   5.512   9.762
21088W        W73984  21.967   7.131   8.876
21089W        W73985  17.790   4.319   2.425
21090W        W73986  33.607   3.998   8.493
21091W        W73987  11.576  15.449   1.194
21092W        W73988  17.845  20.312   0.381
21093W        W73989  12.110  33.931   8.956
21094W        W73990  33.980   9.450   2.077
21095W        W73991  17.634   0.772   8.962
21096W        W73992  34.571  24.337   1.593
21097W        W73993   3.666  10.877   9.334
21098W        W73994   0.019  27.954   9.889
21099W        W73995  20.211  32.908   3.338
21100W        W73996  11.290   0.515   6.956
21101W        W73997  30.766  11.149   0.642
21102W        W73998  19.112  26.578   0.822
21103W        W73999  17.096   8.635   0.532
21104W        W74000  32.793  27.647   9.337
21105W        W74001  26.770  12.789   9.367
21106W        W74002  24.720   5.422   3.661
21107W        W74003   5.955   1.111   2.781
21108W        W74004  20.703  34.915   9.220
21109W        W74005  24.887   5.898   1.600
21110W        W74006  10.602  27.504   2.394
21111W        W74007  31.938  23.909   2.773
21112W        W74008  26.098   1.740   8.507
21113W        W74009   6.901   8.295   1.132
21114W        W74010   9.609   5.794   0.191
21115W        W74011  32.140   3.497   8.913
21116W        W74012   8.621  27.736   9.693
21117W        W74013   2.933  34.161   1.517
21118W        W74014  13.781  21.125   0.146
21119W        W74015   0.540  24.273   9.735
21120W        W74016  27.762  24.327   8.752
21121W        W74017  25.408  21.192   8.853
21122W        W74018  13.498  16.108   0.978
21123W        W74019   3.529   3.156   1.933
21124W        W74020  33.501   2.883   2.748
21125W        W74021  35.332  19.469   2.926
21126W        W74022  25.727   8.295   3.761
21127W        W74023   0.506  33.897   2.543
21128W        W74024  16.322  29.791   7.702
21129W        W74025  23.018  28.611   2.388
21130W        W74026  12.272   9.639  10.331
21131W        W74027  23.797  23.855   8.535
21132W        W74028   2.978  17.175   0.092
21133W        W74029  10.426  22.338   9.834
21134W        W74030  18.358   6.099   9.740
21135W        W74031  29.504  20.094   7.669
21136W        W74032  34.130  30.353  10.248
21137W        W74033   6.354  25.320   2.694
21138W        W74034   9.452  11.541   8.713
21139W        W74035  17.043  26.207   3.573
21140W        W74036   4.662  19.803  10.041
21141W        W74037   1.974  18.263   1.644
21142W        W74038   1.480  27.667   2.914
21143W        W74039  10.365  19.604   0.664
21144W        W74040  24.735   0.327   8.477
21145W        W74041   1.818   7.120   8.418
21146W        W74042  32.596   1.873   0.140
21147W        W74043   0.467   1.717   9.699
21148W        W74044  21.031  20.848   1.201
21149W        W74045  30.759  20.523   2.551
21150W        W74046   7.542   0.137   8.232
21151W        W74047  10.225   6.624   2.082
21152W        W74048  21.688   0.084   7.413
21153W        W74049  31.979  10.963   8.154
21154W        W74050   3.299  26.116   0.299
21155W        W74051  13.784   0.488   0.176
21156W        W74052  32.647  12.407   1.732
21157W        W74053  14.031  26.901   8.404
21158W        W74054  17.881  20.041   7.920
21159W        W74055   9.537  27.415   9.595
21160W        W74056  14.245  27.601  10.077
21161W        W74057  20.710  19.656   9.713
21162W        W74058  26.846  22.157   2.168
21163W        W74059  24.555  23.326   9.137
21164W        W74060   8.591  22.357   7.476
21165W        W74061  13.916  29.663   8.316
21166W        W74062  20.019   0.683   8.039
21167W        W74063  31.774  15.128   1.493
21168W        W74064  32.803  33.566   9.922
21169W        W74065  20.564  11.042   2.201
21170W        W74066  32.692   4.724   1.676
21171W        W74067   3.811   8.300   1.873
21172W        W74068  17.665  22.423  10.251
21173W        W74069   8.366  16.583   8.777
21174W        W74070  21.250  13.156   3.231
21175W        W74071  28.095   2.499   1.909
21176W        W74072  14.412  27.633   2.269
21177W        W74073  13.083  24.223   8.701
21178W        W74074  22.290  28.037   0.125
21179W        W74075   9.595   3.260   8.510
21180W        W74076  28.588  15.022   0.221
21181W        W74077   8.223  26.518   7.133
21182W        W74078  10.619  34.557   0.483
21183W        W74079  20.549  20.621   3.653
21184W        W74080  29.894  35.256   3.613
21185W        W74081  18.441  28.032   2.083
21186W        W74082  21.461  12.663   9.143
21187W        W74083  35.228  21.581   0.538
21188W        W74084  11.402   4.868   1.699
21189W        W74085   7.048   9.495   7.193
21190W        W74086   2.713  35.934   7.498
21191W        W74087  10.636  27.348   0.820
21192W        W74088   2.011  23.105   9.539
21193W        W74089  34.530  24.396   8.977
21194W        W74090   4.613  12.766   2.729
21195W        W74091  22.656  17.333   2.384
21196W        W74092  21.677  15.793   8.549
21197W        W74093  18.407  12.102   2.616
21198W        W74094  26.409  17.265   0.719
21199W        W74095   9.524  14.753   7.474
21200W        W74096   3.254  15.858   1.211
21201W        W74097   7.250  14.097   1.020
21202W        W74098  31.422   4.944   0.593
21203W        W74099  11.051  18.419   7.446
21204W        W74100  11.702   4.735   2.081
21205W        W74101   0.311  19.290   0.505
21206W        W74102  24.948   4.742  10.292
21207W        W74103   0.784  25.655   2.084
21208W        W74104   2.037   1.624   1.232
21209W        W74105  14.813  33.919   0.331
21210W        W74106  17.229  19.436   9.397
21211W        W74107   1.179  25.683   8.784
21212W        W74108  13.746  11.141   7.477
21213W        W74109  30.293  28.806   8.084
21214W        W74110   0.811  34.675   1.166
21215W        W74111   4.651  10.282   7.713
21216W        W74112  34.762  17.634   8.432
21217W        W74113  34.288   2.687   8.810
21218W        W74114   5.415   9.525   1.617
21219W        W74115  12.102   1.593   2.220
21220W        W74116  13.514  32.049   9.854
21221W        W74117  12.144  10.690   7.236
21222W        W74118  14.883   0.716   9.751
21223W        W74119   7.931  35.758   2.038
21224W        W74120  30.424  16.714   1.376
21225W        W74121  18.111  18.771   9.177
21226W        W74122  11.049   2.215   1.942
21227W        W74123  19.596  17.010   7.843
21228W        W74124   5.411  31.997   0.585
21229W        W74125  28.533  30.960   2.210
21230W        W74126  31.193  24.340   9.270
21231W        W74127   6.771  11.443   1.645
21232W        W74128  35.156   8.002   0.706
21233W        W74129  25.128  21.313   9.790
21234W        W74130  12.941  14.036   3.757
21235W        W74131  30.344  21.832   7.828
21236W        W74132   7.206   4.108   0.122
21237W        W74133   1.679  31.300  10.286
21238W        W74134  16.023   0.777   9.443
21239W        W74135   7.264  23.928   1.255
21240W        W74136   7.162  35.417   9.529
21241W        W74137  18.982  27.565   1.682
21242W        W74138  20.033  33.302   9.007
21243W        W74139  34.815  17.250   0.717
21244W        W74140  23.863   2.185   8.677
21245W        W74141  18.941   5.922   8.220
21246W        W74142   9.847  20.527   2.980
21247W        W74143   1.128  19.306   9.436
21248W        W74144   0.974   7.293   3.309
21249W        W74145  28.854  23.553   2.902
21250W        W74146  29.345  11.296   0.117
21251W        W74147  29.776  24.632  10.314
21252W        W74148  14.871   4.633   2.331
21253W        W74149   5.209  35.354   8.973
21254W        W74150  23.784  16.522   2.006
21255W        W74151  22.538  25.071   3.011
21256W        W74152  19.583  14.903   2.627
21257W        W74153   9.356  14.933   8.810
21258W        W74154  19.155  30.323   7.699
21259W        W74155   3.224  11.448   2.410
21260W        W74156   6.444  15.542   0.500
21261W        W74157  20.363  12.210   8.648
21262W        W74158   0.474  14.931   9.428
21263W        W74159  18.626  28.374   9.111
21264W        W74160  12.982  16.635   3.393
21265W        W74161  10.268  11.659   8.950
21266W        W74162  28.235  17.164   9.664
21267W        W74163   0.263   3.087   7.872
21268W        W74164  33.086   8.734   3.717
21269W        W74165  21.456  16.938   2.738
21270W        W74166  12.239  30.804   1.947
21271W        W74167  20.060   9.390   0.543
21272W        W74168   3.233  26.846   1.686
21273W        W74169   1.742  11.804   2.154
21274W        W74170  35.589   5.260   9.783
21275W        W74171  17.602  22.055   0.298
21276W        W74172  22.771  32.720   0.849
21277W        W74173  17.984  31.006   0.786
21278W        W74174  28.083  11.464   0.566
21279W        W74175   5.317  16.159   8.472
21280W        W74176  27.254  20.037   7.924
21281W        W74177  29.939  16.958   1.163
21282W        W74178  31.906  22.660   2.309
21283W        W74179  23.746  34.415   7.135
21284W        W74180  29.880  12.740   2.014
21285W        W74181   0.944   7.633   9.463
21286W        W74182  34.849   8.458   0.681
21287W        W74183  26.714  21.456   9.296
21288W        W74184  14.285  17.266   1.686
21289W        W74185  27.904  29.916   8.426
21290W        W74186  32.019  31.970   9.236
21291W        W74187  35.564  22.314  10.020
21292W        W74188   3.356  12.847   0.397
21293W        W74189  29.044  28.210   0.749
21294W        W74190  15.445   0.903   8.353
21295W        W74191  24.244  28.217   2.913
21296W        W74192  22.751  18.488   1.464
21297W        W74193  16.409  20.495   7.968
21298W        W74194   1.211   2.241   2.866
21299W        W74195  21.804  20.355   2.889
21300W        W74196  33.301   5.141   2.938
21301W        W74197   9.039  13.499   3.286
21302W        W74198  18.545  28.166   1.151
21303W        W74199  33.888  25.462   2.015
21304W        W74200  13.401  21.478   0.122
21305W        W74201  11.255  12.650   9.635
21306W        W74202  32.790   0.383   0.610
21307W        W74203  18.338  18.152   2.270
21308W        W74204  25.524  30.265   2.390
21309W        W74205  30.859  10.681   0.368
21310W        W74206   0.694   2.767   0.101
21311W        W74207  18.869   2.080   0.226
21312W        W74208  18.531   0.483   7.934
21313W        W74209  28.012   9.879   8.746
21314W        W74210  15.211  34.577   9.628
21315W        W74211  35.857  27.513   9.373
21316W        W74212  21.409  28.053   7.924
21317W        W74213   0.792  26.612   8.209
21318W        W74214  26.677  15.372   7.897
21319W        W74215  13.203   9.217   7.357
21320W        W74216  19.274   7.034  10.195
21321W        W74217  12.368  18.566   9.792
21322W        W74218   6.373  33.530   0.320
21323W        W74219  18.818   6.731   0.848
21324W        W74220  17.127  23.550   1.653
21325W        W74221  27.407  21.025  10.261
21326W        W74222  10.814   4.517   8.538
21327W        W74223  22.786   7.966   7.931
21328W        W74224   4.610  35.042   7.455
21329W        W74225   2.358  14.978  10.290
21330W        W74226   2.043   6.459   2.528
21331W        W74227  13.820   7.975   8.538
21332W        W74228  13.681  13.962   1.062
21333W        W74229  33.078  10.423   7.435
21334W        W74230  24.223  28.298  10.252
21335W        W74231  12.047   6.820   0.737
21336W        W74232  27.523   7.600   9.609
21337W        W74233  30.502  12.916   3.023
21338W        W74234  27.423  22.945   8.254
21339W        W74235  17.118  29.051   0.684
21340W        W74236  25.715   3.430   0.107
21341W        W74237   2.817   7.032   2.802
21342W        W74238  32.269   2.642   0.943
21343W        W74239  12.612   8.844   0.100
21344W        W74240  26.877   9.873   8.019
21345W        W74241  33.916  10.504   3.118
21346W        W74242  14.883  20.524   2.741
21347W        W74243  33.604  10.544   9.658
21348W        W74244  31.189  22.860   8.367
21349W        W74245  30.344  17.995   2.701
21350W        W74246  24.451  27.656   9.123
21351W        W74247   5.896  16.824   9.721
21352W        W74248  18.012  10.284   9.508
21353W        W74249  30.155  24.748   9.066
21354W        W74250  23.559  29.213   7.730
21355W        W74251  21.237  21.052   0.240
21356W        W74252  15.042   1.906   8.216
21357W        W74253  28.005  14.511   1.762
21358W        W74254  16.393  29.740   1.223
21359W        W74255  24.859  14.238   8.236
21360W        W74256   1.634   9.462   7.981
21361W        W74257  20.669  14.017   2.396
21362W        W74258  17.566   4.745   0.696
21363W        W74259   8.622   1.864   2.489
21364W        W74260   8.280  31.364   0.196
21365W        W74261  31.393   1.326   9.657
21366W        W74262  10.124  13.298   0.805
21367W        W74263  12.643  35.067   0.505
21368W        W74264  21.340   0.649  10.209
21369W        W74265  23.309  13.086   1.429
21370W        W74266  19.880  34.386   1.699
21371W        W74267   6.029   2.052   1.691
21372W        W74268  35.132  29.472   7.865
21373W        W74269   5.982   8.076   2.626
21374W        W74270   2.603  25.203   1.254
21375W        W74271  30.248   8.454   1.708
21376W        W74272   7.331  27.368   2.976
21377W        W74273  24.466  20.364   8.677
21378W        W74274   1.930   4.281   1.347
21379W        W74275   8.889  34.745   0.706
21380W        W74276   1.791  11.286   0.921
21381W        W74277  14.130  29.770   9.665
21382W        W74278  31.780   1.871  10.201
21383W        W74279  12.725   9.477   1.314
21384W        W74280   1.720  30.479   1.383
21385W        W74281  20.255  27.506   3.919
21386W        W74282   4.175  26.014   0.299
21387W        W74283  24.217  32.732   0.862
21388W        W74284   9.196   8.205   2.015
21389W        W74285  33.563  11.667   1.770
21390W        W74286   4.692   9.670   1.064
21391W        W74287  24.051  31.142   2.288
21392W        W74288  13.371  25.194   0.825
21393W        W74289  14.081  23.987  10.303
21394W        W74290  26.541   2.903   9.999
21395W        W74291  23.762  28.863   9.026
21396W        W74292  25.429  32.371   3.411
21397W        W74293  22.231  31.492   7.742
21398W        W74294  17.390  30.571   9.229
21399W        W74295  11.976   2.802   8.388
21400W        W74296  15.028  26.455   7.928
21401W        W74297  31.213  29.021   1.482
21402W        W74298  22.379  10.426   7.654
21403W        W74299  21.865  19.139   1.584
21404W        W74300  35.451  32.340   3.050
21405W        W74301  32.490  13.164   8.278
21406W        W74302  33.552  21.741   7.887
21407W        W74303  27.161   8.605   3.284
21408W        W74304   7.744  10.410   9.197
21409W        W74305   8.627  13.667   1.482
21410W        W74306   3.273  21.486   9.876
21411W        W74307   7.534  29.526   2.310
21412W        W74308  25.154   4.648   0.398
21413W        W74309  25.072  27.036   8.961
21414W        W74310  12.885   4.685   2.284
21415W        W74311   2.761  19.060   2.933
21416W        W74312   8.937  19.010   9.858
21417W        W74313  31.390   9.478   2.926
21418W        W74314  13.136  18.142   2.061
21419W        W74315   9.150  21.054   7.759
21420W        W74316  28.718  13.888   1.514
21421W        W74317  30.730  24.476   7.798
21422W        W74318   2.444  16.318   1.207
21423W        W74319  15.064  29.890   0.134
21424W        W74320  28.477  29.266   8.091
21425W        W74321  28.099  25.579   7.859
21426W        W74322  28.090  29.262   0.159
21427W        W74323  18.345  13.734   8.363
21428W        W74324   5.765  23.856   3.462
21429W        W74325  15.622  28.381   1.902
21430W        W74326   7.118  35.499   2.613
21431W        W74327  34.530  18.834   1.777
21432W        W74328  24.667   0.810   9.908
21433W        W74329   0.317   5.239   2.839
21434W        W74330   4.045  26.739   1.976
21435W        W74331  23.769  27.175   9.821
21436W        W74332  13.663  14.610   1.724
21437W        W74333  20.365  12.274   3.604
21438W        W74334   9.368  15.355   8.581
21439W        W74335  28.575  23.105   7.381
21440W        W74336  35.767  27.607   0.738
21441W        W74337  33.717  15.904   1.635
21442W        W74338  31.755  26.125   9.769
21443W        W74339  24.663  30.624   7.797
21444W        W74340  14.376  27.910   2.734
21445W        W74341  12.045  21.903   8.502
21446W        W74342  29.091  32.188   8.198
21447W        W74343  17.850  12.218   8.766
21448W        W74344   9.276  32.644   9.528
21449W        W74345  25.908   6.442   2.589
21450W        W74346  18.597   2.722   1.723
21451W        W74347   7.783  20.290   8.002
21452W        W74348  27.775   9.382   1.507
21453W        W74349  24.186  20.173   0.923
21454W        W74350  29.470  22.054   1.510
21455W        W74351  32.529  34.702   1.211
21456W        W74352  10.332   8.501   1.779
21457W        W74353  10.996  30.297   1.923
21458W        W74354  25.757  13.933   0.405
21459W        W74355   6.466   5.139   2.893
21460W        W74356   4.476   2.255   7.840
21461W        W74357  31.672   8.586   9.198
21462W        W74358  35.393  26.294   3.971
21463W        W74359  17.998   9.611   1.136
21464W        W74360  29.674  21.925   2.373
21465W        W74361  27.123  16.955   1.801
21466W        W74362   6.834  26.913   0.542
21467W        W74363   7.288   6.638   2.965
21468W        W74364   7.741   6.195   7.942
21469W        W74365   9.488   7.504   9.842
21470W        W74366  25.731  24.631   0.090
21471W        W74367   0.650   3.742   2.764
21472W        W74368   5.222  17.223   3.469
21473W        W74369  18.867  12.762   9.685
21474W        W74370  30.335  27.958   7.710
21475W        W74371  17.502  17.680   1.436
21476W        W74372   6.937   0.487   1.324
21477W        W74373  27.315  11.473   9.196
21478W        W74374  22.940  16.808   2.970
21479W        W74375  17.397  28.137   2.999
21480W        W74376  24.452   8.330   2.740
21481W        W74377   2.025  26.904   0.904
21482W        W74378  27.660  28.894   0.224
21483W        W74379  12.729   4.090   0.920
21484W        W74380   6.528  14.702   9.087
21485W        W74381   7.671  30.179  10.159
21486W        W74382  35.122  24.143   0.421
21487W        W74383   6.816  11.823   9.319
21488W        W74384   0.586   2.123   3.434
21489W        W74385  25.769  18.942   2.793
21490W        W74386   9.328   7.324   9.411
21491W        W74387   8.026  11.560   9.216
21492W        W74388  18.892  14.787   1.194
21493W        W74389  21.441   2.028   9.352
21494W        W74390   1.865  16.123   2.625
21495W        W74391  23.621  19.126   8.693
21496W        W74392  28.887   4.925   7.843
21497W        W74393  28.185  35.270   1.213
21498W        W74394  15.069  15.625  10.111
21499W        W74395   5.848  30.935   2.574
21500W        W74396  18.280  26.760   7.547
21501W        W74397  31.001  11.634  10.262
21502W        W74398  13.129  30.644   1.689
21503W        W74399  17.001  25.525   9.020
21504W        W74400   7.036  14.301   8.694
21505W        W74401  35.637  20.737   8.512
21506W        W74402  13.464  20.888   8.074
21507W        W74403  18.785  25.887   8.930
21508W        W74404  12.403  19.159   7.594
21509W        W74405   1.873  35.782   0.927
21510W        W74406   5.495  16.176  10.264
21511W        W74407  14.506  32.449   8.534
21512W        W74408  21.805   0.337   2.429
21513W        W74409  22.068   1.218   3.402
21514W        W74410  19.318   1.972   0.539
21515W        W74411  10.655  13.772   2.189
21516W        W74412   8.830  10.854   2.102
21517W        W74413  13.037  31.620   0.154
21518W        W74414  18.192  17.819   0.844
21519W        W74415   2.630  15.337   3.662
21520W        W74416   6.642  20.337   2.630
21521W        W74417  29.137  20.171   9.141
21522W        W74418   2.490  34.099   1.930
21523W        W74419  12.277  31.108   2.386
21524W        W74420   6.808  12.665   8.487
21525W        W74421  13.813  16.355   1.983
21526W        W74422   5.470  12.185   0.124
21527W        W74423  27.513  28.433   7.697
21528W        W74424   2.073  29.363   8.176
21529W        W74425  25.015  35.618   0.707
21530W        W74426  24.661  30.947   8.465
21531W        W74427   9.614   3.348   9.090
21532W        W74428  14.599  13.210   7.257
21533W        W74429   7.523   3.421   1.125
21534W        W74430   3.831  35.891   7.987
21535W        W74431   3.043  28.608  10.008
21536W        W74432  14.927  29.474   7.208
21537W        W74433  29.115  29.894   3.198
21538W        W74434  21.007  27.110   8.836
21539W        W74435  34.578  19.680   3.406
21540W        W74436   2.167  28.671   9.554
21541W        W74437  22.968  26.448   9.168
21542W        W74438  21.231   5.514   7.087
21543W        W74439  19.680  35.631   9.333
21544W        W74440   0.652  19.105   2.766
21545W        W74441  18.022   6.989   0.312
21546W        W74442  12.334  18.936  10.177
21547W        W74443  28.909  18.813   9.819
21548W        W74444  15.953  11.469   0.345
21549W        W74445  16.914  16.269   2.330
21550W        W74446   9.592   4.214   2.731
21551W        W74447  35.596  34.731   8.057
21552W        W74448   9.931   4.025   3.094
21553W        W74449  33.730  10.736   2.046
21554W        W74450   6.109  17.623   9.196
21555W        W74451  24.907  28.823   2.589
21556W        W74452  29.894  13.334   2.356
21557W        W74453  18.547  11.866  10.109
21558W        W74454   8.136  16.022   2.659
21559W        W74455  23.344  11.178   8.887
21560W        W74456   9.252  15.044   3.443
21561W        W74457   4.174   7.264   7.830
21562W        W74458  18.529  34.428  10.091
21563W        W74459  10.546  14.688   9.052
21564W        W74460  11.745  30.407   0.344
21565W        W74461   9.005  31.692   1.748
21566W        W74462  11.693  14.195   2.298
21567W        W74463  15.195   2.375   8.280
21568W        W74464  29.798   3.803   0.838
21569W        W74465  27.402  29.326   7.340
21570W        W74466  36.004  22.734   0.820
21571W        W74467   6.901   7.060   0.271
21572W        W74468  13.694  31.118   2.546
21573W        W74469  10.830  22.273  10.315
21574W        W74470  19.526   3.446   0.410
21575W        W74471  16.045  34.794   0.493
21576W        W74472  30.535   4.944   2.793
21577W        W74473  32.250   0.047   9.117
21578W        W74474  19.851  10.753   0.410
21579W        W74475   5.635  23.740   2.292
21580W        W74476   8.196  25.185   8.700
21581W        W74477   3.532   8.607   1.625
21582W        W74478  28.920   0.274  10.019
21583W        W74479   4.499   8.772   8.854
21584W        W74480  15.651  11.395   0.824
21585W        W74481  33.784  25.020   0.130
21586W        W74482  18.841  17.406   0.788
21587W        W74483   7.401   0.253   1.419
21588W        W74484   7.912  13.137   9.333
21589W        W74485  18.339  26.501  10.256
21590W        W74486  35.587  11.318   9.986
21591W        W74487  31.194  14.099   8.370
21592W        W74488  33.919   1.522   9.534
21593W        W74489   0.756  17.618   1.279
21594W        W74490  23.300  13.672   0.420
21595W        W74491  10.473  28.456   2.217
21596W        W74492  10.638   1.326   2.145
21597W        W74493   3.274  32.801   2.735
21598W        W74494   7.484  25.030   0.038
21599W        W74495   5.041  16.356   2.646
21600W        W74496  34.355  19.689   2.880
21601W        W74497   8.328  29.370   2.235
21602W        W74498  32.580  23.806   8.495
21603W        W74499  35.844  21.979   1.220
21604W        W74500  24.399   7.764   0.729
21605W        W74501  16.670   1.737   7.928
21606W        W74502  15.956  13.684   9.196
21607W        W74503  26.205  25.369   9.888
21608W        W74504  22.676  11.233   2.164
21609W        W74505  30.705  10.164   2.722
21610W        W74506  16.320   8.343   1.354
21611W        W74507  30.855  20.629   7.690
21612W        W74508   6.171   4.262   0.654
21613W        W74509  18.154   8.798  10.098
21614W        W74510  33.052  10.171   1.765
21615W        W74511  23.755   1.527   2.620
21616W        W74512  24.556   4.651   8.087
21617W        W74513   1.131  10.145   8.612
21618W        W74514  20.160   1.944  10.271
21619W        W74515   3.336  14.645   3.365
21620W        W74516  31.065  15.071   0.292
21621W        W74517   5.634  28.537   8.537
21622W        W74518   4.680   8.541   1.876
21623W        W74519  20.983   5.905   7.264
21624W        W74520  34.588   2.705   2.156
21625W        W74521  26.925  31.645   9.579
21626W        W74522  11.551   0.955   2.094
21627W        W74523  13.414  23.421   8.625
21628W        W74524  23.592  29.461   2.309
21629W        W74525   3.374  30.515   8.343
21630W        W74526  28.138  16.461   3.561
21631W        W74527  31.679  17.817   3.790
21632W        W74528   4.124  33.178   0.879
21633W        W74529   8.194  18.626   9.287
21634W        W74530  17.655  31.662   9.250
21635W        W74531  21.497  17.536   1.046
21636W        W74532   4.805  14.813   1.226
21637W        W74533  19.384  25.663   8.154
21638W        W74534  16.859  20.303   2.302
21639W        W74535  31.722  10.225   9.581
21640W        W74536   3.893  27.178   2.255
21641W        W74537  19.581  11.394   9.251
21642W        W74538  33.257  29.345   9.155
21643W        W74539  16.001  34.285   3.253
21644W        W74540  10.947  29.292   7.368
21645W        W74541  29.473   5.663   9.652
21646W        W74542   5.363   7.499   1.669
21647W        W74543  16.871  25.672   3.186
21648W        W74544   2.257  17.772   8.245
21649W        W74545  27.701  31.217   7.277
21650W        W74546  20.926  14.387   7.662
21651W        W74547  31.587  35.175   7.900
21652W        W74548  28.721  20.708   0.146
21653W        W74549  34.141  13.710   1.110
21654W        W74550   4.827  35.557   2.993
21655W        W74551  16.271  26.710   2.740
21656W        W74552  13.621  10.078   9.706
21657W        W74553   7.484  13.781   2.061
21658W        W74554  10.642  21.817   8.928
21659W        W74555  20.212  24.792   2.024
21660W        W74556  22.041   5.894   3.175
21661W        W74557  30.415  25.648   9.390
21662W        W74558   7.419  35.703   9.118
21663W        W74559  19.284  18.850   1.951
21664W        W74560  18.952  13.585   7.510
21665W        W74561   5.854   5.590   1.586
21666W        W74562  22.132  14.255   1.182
21667W        W74563  28.489  19.172   1.343
21668W        W74564  11.034  28.191   0.458
21669W        W74565   5.792  19.398   3.474
21670W        W74566  19.950   3.988   9.319
21671W        W74567  11.970  16.795   0.043
21672W        W74568  11.790  18.992   7.872
21673W        W74569  24.291  19.942   3.137
21674W        W74570   5.348  10.633   2.830
21675W        W74571  32.020  22.863   1.328
21676W        W74572  16.535  30.877   1.201
21677W        W74573  28.310   4.596   0.358
21678W        W74574  33.941  35.748  10.304
21679W        W74575  35.803  29.088   7.362
21680W        W74576   0.044   3.212   9.049
21681W        W74577  24.283  29.637   1.241
21682W        W74578  25.399  20.797   9.154
21683W        W74579  12.157   6.431   9.934
21684W        W74580   1.384  28.080   1.991
21685W        W74581  34.811   6.143   2.206
21686W        W74582   9.361  27.666  10.325
21687W        W74583  10.642  10.241   8.660
21688W        W74584  35.115  20.060  10.301
21689W        W74585  35.797  19.080   3.267
21690W        W74586  12.727   5.322   9.779
21691W        W74587  32.946  32.890   0.011
21692W        W74588  24.443  28.216   2.454
21693W        W74589  30.054  26.182   0.837
21694W        W74590  35.828  23.942   0.715
21695W        W74591  10.730  32.146   2.766
21696W        W74592  14.497  30.042   2.175
21697W        W74593   4.530  13.479   3.431
21698W        W74594  31.964  12.268   9.168
21699W        W74595   2.118  14.632   3.165
21700W        W74596  11.684  29.234   0.013
21701W        W74597   0.492   0.399   3.079
21702W        W74598  16.650  27.071   3.483
21703W        W74599  29.288  30.314   6.647
21704W        W74600  14.306  16.128   2.253
21705W        W74601  10.134  25.145   9.837
21706W        W74602  28.993  26.348   0.895
21707W        W74603  24.500  27.195   0.207
21708W        W74604  16.721  12.283   9.189
21709W        W74605   1.887  28.926   8.196
21710W        W74606  31.748  33.867   2.002
21711W        W74607  13.009  27.375   9.244
21712W        W74608  24.987  15.194   2.951
21713W        W74609   5.881  10.613   8.931
21714W        W74610  32.556   3.117   9.542
21715W        W74611  19.376  16.762   0.194
21716W        W74612   7.023  27.775   1.818
21717W        W74613  29.199  16.695   7.929
21718W        W74614  27.356  29.397   8.869
21719W        W74615  17.008   1.278   0.611
21720W        W74616  16.821  26.549   1.050
21721W        W74617  29.990  26.103   3.089
21722W        W74618  23.282   0.049   0.837
21723W        W74619  14.360  14.726   0.705
21724W        W74620  19.560  35.011   8.652
21725W        W74621   6.153  12.077   0.103
21726W        W74622  25.669  15.460   8.061
21727W        W74623  10.132  14.028   0.934
21728W        W74624  11.348  13.946   7.611
21729W        W74625  27.635  28.235   2.194
21730W        W74626   2.220  23.805   2.367
21731W        W74627  30.073  18.566   1.786
21732W        W74628  31.543  31.223   8.038
21733W        W74629  22.091   0.881   3.043
21734W        W74630  31.545  15.356   3.002
21735W        W74631  25.593  25.524   8.760
21736W        W74632  19.152  30.778   8.813
21737W        W74633  22.648  33.324   1.347
21738W        W74634  34.310  12.760   1.007
21739W        W74635   1.410  11.587   1.738
21740W        W74636   5.834   5.895   2.540
21741W        W74637  14.281  18.904   0.278
21742W        W74638  34.455  34.131   8.242
21743W        W74639  32.641  33.197   1.017
21744W        W74640  31.484  15.833   3.397
21745W        W74641  13.368  20.296   2.613
21746W        W74642  22.006  20.878   7.930
21747W        W74643  13.665  27.471   2.104
21748W        W74644  33.214   2.139   0.967
21749W        W74645  32.820   3.391   0.837
21750W        W74646  14.419  17.740   1.649
21751W        W74647  22.101  32.606   0.765
21752W        W74648   9.168  12.558   8.631
21753W        W74649  20.033  25.208   0.418
21754W        W74650  18.029  23.243   0.977
21755W        W74651  32.339  10.970   2.707
21756W        W74652   0.600  23.798   9.408
21757W        W74653  24.518   8.763   8.160
21758W        W74654   0.434  27.607   7.750
21759W        W74655  34.626  22.688   7.678
21760W        W74656  25.656  13.679   2.298
21761W        W74657   0.768  24.827   1.549
21762W        W74658  19.707  30.893   3.253
21763W        W74659  20.013  15.509   2.229
21764W        W74660   4.140  14.604  10.135
21765W        W74661   0.854   9.746   8.464
21766W        W74662  14.046   9.997   0.754
21767W        W74663  24.082  27.309   0.908
21768W        W74664   6.409   6.250  10.300
21769W        W74665  29.380  16.577   8.449
21770W        W74666  22.482  16.721   3.072
21771W        W74667  23.642  19.027   1.012
21772W        W74668   9.057  28.104   7.613
21773W        W74669  35.205  17.840   8.645
21774W        W74670  28.908  30.457   1.108
21775W        W74671  13.644  19.456   2.579
21776W        W74672  18.098  15.389   0.170
21777W        W74673  10.024  13.962   0.048
21778W        W74674  12.335  12.546   9.727
21779W        W74675  10.335  17.244   9.475
21780W        W74676   9.979  18.853   0.104
21781W        W74677  26.946   5.954   0.005
21782W        W74678   9.950  29.678   2.645
21783W        W74679  19.483  11.964   2.578
21784W        W74680  34.451   5.105   0.333
21785W        W74681  13.167  18.180   8.619
21786W        W74682  10.205  28.679   7.971
21787W        W74683   2.344   9.992  10.254
21788W        W74684  21.172  22.529   9.263
21789W        W74685  10.931  31.949   7.801
21790W        W74686  33.553   0.371   8.853
21791W        W74687   9.490  14.580   2.633
21792W        W74688  14.649   9.391   2.350
21793W        W74689   9.549   0.786   7.142
21794W        W74690  13.447  23.966   2.528
21795W        W74691  18.847   5.338   1.647
21796W        W74692  23.579  19.330   7.838
21797W        W74693  30.651  19.279   0.446
21798W        W74694  29.271  18.086   0.744
21799W        W74695  12.945   4.203   2.398
21800W        W74696   8.483  31.494   2.331
21801W        W74697  19.202  30.147   9.689
21802W        W74698   8.375  24.529   2.040
21803W        W74699  35.121  31.866   8.480
21804W        W74700  14.582  12.209   3.160
21805W        W74701  33.835   8.699   0.574
21806W        W74702  21.412  23.490   0.775
21807W        W74703   6.660  11.323   9.964
21808W        W74704  23.359  26.029   1.873
21809W        W74705  26.070  14.268   0.474
21810W        W74706   8.008  23.627   0.194
21811W        W74707  10.087  14.156   1.426
21812W        W74708  35.933  14.345   2.315
21813W        W74709   0.640  13.887  10.088
21814W        W74710   6.378   4.615   2.879
21815W        W74711   9.705  23.769  10.003
21816W        W74712  13.858   8.884   8.514
21817W        W74713   2.619  32.056   0.334
21818W        W74714  28.470  23.801   3.113
21819W        W74715  13.697  23.940   8.608
21820W        W74716  24.858  14.979   7.973
21821W        W74717  23.944   3.829   1.141
21822W        W74718   2.734  35.188   0.611
21823W        W74719  31.790  18.077   9.249
21824W        W74720   4.208  34.488   0.664
21825W        W74721  20.553  14.975   9.763
21826W        W74722  14.134  14.192   0.923
21827W        W74723  15.512   5.385   3.009
21828W        W74724   5.750  14.721   2.599
21829W        W74725  13.676  32.388   8.568
21830W        W74726  10.646  18.532   1.888
21831W        W74727  10.026  31.867   8.957
21832W        W74728  25.785  21.756   2.671
21833W        W74729  35.996   7.182   8.932
21834W        W74730  26.115  11.426   2.440
21835W        W74731  12.365  18.468   8.976
21836W        W74732  27.987  34.761   8.214
21837W        W74733  21.281   9.304   1.440
21838W        W74734  11.746  28.515   1.699
21839W        W74735  13.323  26.611   9.390
21840W        W74736   4.176  17.910   2.416
21841W        W74737  11.327  14.161   1.838
21842W        W74738  26.094   0.830   2.687
21843W        W74739   9.554  25.891   2.156
21844W        W74740   9.706  25.448   2.407
21845W        W74741  10.053  33.347   1.194
21846W        W74742  20.677   4.521   3.530
21847W        W74743  33.671  32.058   0.606
21848W        W74744   4.003  17.609   8.761
21849W        W74745   3.125  25.409   1.717
21850W        W74746  21.688   4.108   2.260
21851W        W74747  17.808   2.541   3.031
21852W        W74748  21.497  26.104   2.529
21853W        W74749  28.236  29.208   9.924
21854W        W74750   7.627  35.416   2.290
21855W        W74751   8.000   5.362   0.113
21856W        W74752  18.340  32.708   3.543
21857W        W74753  34.099  18.456   4.014
21858W        W74754  35.421   0.560   0.102
21859W        W74755  22.642  19.705   7.862
21860W        W74756   0.334  34.471   1.941
21861W        W74757  16.528  24.502   1.095
21862W        W74758  32.754  12.479   8.527
21863W        W74759   4.158   4.479   7.748
21864W        W74760  29.297  24.739  10.122
21865W        W74761   4.145  20.531   3.328
21866W        W74762  28.628  21.524   0.656
21867W        W74763  24.374   0.946   0.547
21868W        W74764  22.398   4.507   9.683
21869W        W74765  10.098   4.507   1.619
21870W        W74766  17.709  32.367   0.568
21871W        W74767   6.610   9.742   8.159
21872W        W74768  26.590  30.616   0.020
21873W        W74769  19.841  25.963   1.660
21874W        W74770  28.818  15.218   9.348
21875W        W74771  13.507  20.658   2.949
21876W        W74772   5.241  33.632   0.466
21877W        W74773   1.071  16.406   2.445
21878W        W74774  12.887  33.494   9.653
21879W        W74775  16.605  20.785   1.029
21880W        W74776  24.418  30.977   9.691
21881W        W74777  13.699  34.406   8.165
21882W        W74778  20.460   5.566   8.346
21883W        W74779  19.596  20.907  10.204
21884W        W74780   5.799  22.284   2.343
21885W        W74781  28.231  31.787   2.022
21886W        W74782   5.427   8.530   8.954
21887W        W74783   1.175   1.087   9.577
21888W        W74784  14.316   0.312   7.582
21889W        W74785  19.323  19.223  10.090
21890W        W74786  35.303  18.199   3.264
21891W        W74787   9.411  28.878   0.825
21892W        W74788  10.070   1.539   7.739
21893W        W74789  34.241  19.902   0.892
21894W        W74790  31.088   4.341   2.372
21895W        W74791  19.738  14.967   9.462
21896W        W74792  25.138   7.474   8.652
21897W        W74793  17.961   5.202   2.234
21898W        W74794  18.046   3.838   2.614
21899W        W74795  34.486  18.809   8.766
21900W        W74796   9.727  22.720   1.002
21901W        W74797   3.580  31.729   0.211
21902W        W74798   8.158  17.722   7.951
21903W        W74799   3.191  32.382   2.074
21904W        W74800  33.793  26.439   7.835
21905W        W74801   5.532  27.740   9.624
21906W        W74802  20.072   3.431   0.470
21907W        W74803   7.385  22.106   0.444
21908W        W74804  19.522  34.198   9.651
21909W        W74805  22.753  18.660   1.931
21910W        W74806  18.138  14.215   2.186
21911W        W74807   8.325   7.456   8.109
21912W        W74808   8.421  22.155   3.484
21913W        W74809  21.936  19.609   8.569
21914W        W74810   3.371  33.814   8.552
21915W        W74811  24.007   0.125   9.658
21916W        W74812  11.915  21.824   8.990
21917W        W74813  12.887   8.294   9.238
21918W        W74814  18.540  35.263   2.548
21919W        W74815  22.515  32.246   0.779
21920W        W74816  33.992  32.913   7.583
21921W        W74817  13.505  26.828  10.047
21922W        W74818  30.561   4.296   7.858
21923W        W74819  23.678  19.328   9.122
21924W        W74820  12.420  14.815  10.040
21925W        W74821   0.438  30.166   9.511
21926W        W74822  31.275  21.794   9.847
21927W        W74823  33.909  29.474   0.114
21928W        W74824  11.273  11.885  10.223
21929W        W74825  35.278  28.037   2.844
21930W        W74826  34.264  27.467   3.581
21931W        W74827  29.904  14.387   8.426
21932W        W74828  34.147  32.115   0.852
21933W        W74829  31.277  28.696   1.066
21934W        W74830  27.492  26.216   7.572
21935W        W74831   9.592  13.190   2.642
21936W        W74832  13.368  17.608   7.755
21937W        W74833  21.848  35.039   2.386
21938W        W74834   5.523  33.244   2.805
21939W        W74835  12.761  10.394   2.566
21940W        W74836   2.558  31.418   8.966
21941W        W74837   4.655  35.788   2.535
21942W        W74838  15.559  10.701   1.574
21943W        W74839  15.710  28.405   3.317
21944W        W74840   0.941  17.400   9.015
21945W        W74841   6.871  23.066   2.562
21946W        W74842  25.955   4.188   0.098
21947W        W74843   5.056  13.151   3.315
21948W        W74844   2.823  33.703   0.341
21949W        W74845   4.075  26.132   3.024
21950W        W74846  28.417  34.045   1.214
21951W        W74847  26.211  28.285   7.935
21952W        W74848   2.560  28.726   1.151
21953W        W74849   6.775  19.233   2.506
21954W        W74850   4.522  29.834   1.224
21955W        W74851  16.633  19.707   8.596
21956W        W74852  10.877  19.500   7.896
21957W        W74853  30.418   5.901   0.712
21958W        W74854  14.881  35.760   2.231
21959W        W74855  31.770   0.259   2.634
21960W        W74856   0.555   9.797   7.721
21961W        W74857   1.793  10.144   2.365
21962W        W74858  25.157  10.331   8.265
21963W        W74859  21.517  29.814   9.388
21964W        W74860  26.939  12.714   1.931
21965W        W74861  28.194  24.583   2.452
21966W        W74862  29.300  26.775   9.050
21967W        W74863  10.170  26.752   0.737
21968W        W74864  30.518  34.526   9.923
21969W        W74865   8.311  33.762   1.690
21970W        W74866  24.015  28.071   0.346
21971W        W74867  13.213  28.136   8.176
21972W        W74868   7.940   0.671   9.131
21973W        W74869  17.211   7.797   8.323
21974W        W74870  25.656   5.776   2.019
21975W        W74871  11.594  20.113   8.842
21976W        W74872  13.754  32.139   3.404
21977W        W74873  26.859  30.571   2.394
21978W        W74874   4.235  32.167   0.146
21979W        W74875  18.961  13.224   7.947
21980W        W74876  19.859  30.389   8.220
21981W        W74877  12.634  16.133   2.769
21982W        W74878  21.081   7.552   9.416
21983W        W74879   7.820  16.618   2.490
21984W        W74880   1.980  19.186   9.103
21985W        W74881  26.634  31.792   8.727
21986W        W74882  35.122  35.226   1.408
21987W        W74883  30.231   8.087   2.562
21988W        W74884  11.410  10.859   0.543
21989W        W74885  23.467  24.318   9.446
21990W        W74886  28.972  32.325   9.499
21991W        W74887  34.627   7.489   7.808
21992W        W74888  30.728  23.335   0.931
21993W        W74889   8.759  18.984   1.624
21994W        W74890   4.883   2.125   9.050
21995W        W74891  33.739  30.349   2.506
21996W        W74892   2.843   9.899   0.094
21997W        W74893   9.533  16.749   0.575
21998W        W74894  20.762   1.570   8.955
21999W        W74895   2.260  23.125   2.482
22000W        W74896   6.952  11.804   2.560
22001W        W74897   6.756  13.992   7.531
22002W        W74898  26.783  15.345   2.123
22003W        W74899  30.706  35.384   7.829
22004W        W74900  20.109  24.602   8.166
22005W        W74901  34.424  11.420   7.566
22006W        W74902   3.091  22.431   8.810
22007W        W74903  24.635  11.740   1.154
22008W        W74904  31.099  25.605   0.710
22009W        W74905   5.996  27.625   1.473
22010W        W74906  14.225  16.420   1.404
22011W        W74907  10.491  20.021   9.140
22012W        W74908  27.910   5.815   0.213
22013W        W74909  12.264  18.751   8.500
22014W        W74910  23.288  17.379   2.221
22015W        W74911  30.275  19.168   9.888
22016W        W74912  25.308   4.626   2.673
22017W        W74913  27.299  35.096   0.529
22018W        W74914  20.699   3.591   9.521
22019W        W74915  17.264  34.796   0.213
22020W        W74916  25.553  19.272   0.630
22021W        W74917   9.624  13.462   7.569
22022W        W74918   3.389  30.439   9.708
22023W        W74919  18.012   6.560   0.050
22024W        W74920  15.034  30.373   0.867
22025W        W74921  12.995   5.748   9.883
22026W        W74922  24.788   4.234   3.346
22027W        W74923  26.481  35.754   9.963
22028W        W74924   9.907  23.254   0.200
22029W        W74925  21.701  21.583   8.812
22030W        W74926   3.928   1.235   1.699
22031W        W74927  26.453   6.428   3.517
22032W        W74928   0.695  18.171   9.739
22033W        W74929  25.056  35.648   9.352
22034W        W74930  31.989  20.601   7.532
22035W        W74931  10.362  14.177   9.127
22036W        W74932  35.181  33.606   1.961
22037W        W74933  34.837   9.725   8.419
22038W        W74934   0.467  10.207   9.550
22039W        W74935  22.182   4.573   2.551
22040W        W74936  33.700  24.723   1.466
22041W        W74937  29.775   9.499   7.882
22042W        W74938  26.491  30.516   9.243
22043W        W74939   1.117   2.370   0.446
22044W        W74940  16.784  18.558   9.749
22045W        W74941  34.228  20.157   2.106
22046W        W74942   6.333  18.723   8.295
22047W        W74943  12.334  12.634   1.868
22048W        W74944  24.301  22.386   0.890
22049W        W74945   4.786  19.755   9.345
22050W        W74946  25.387  34.994   9.610
22051W        W74947   8.955  33.717   8.878
22052W        W74948  26.827  19.153   8.973
22053W        W74949  10.178   3.141   0.109
22054W        W74950  32.491   3.486   9.282
22055W        W74951   4.641  15.956   2.546
22056W        W74952  14.161  31.069   0.703
22057W        W74953  31.692  23.885   0.175
22058W        W74954  12.001  13.809   2.438
22059W        W74955   2.350  18.067   1.409
22060W        W74956   3.894  19.193   0.613
22061W        W74957  14.103   8.101   3.158
22062W        W74958  26.007   6.380   3.145
22063W        W74959  22.997  22.358   0.200
22064W        W74960   3.804  33.844   8.907
22065W        W74961  16.489  24.866   9.453
22066W        W74962  31.877  25.177   0.030
22067W        W74963  33.994  18.494  10.265
22068W        W74964  16.679  31.105   2.583
22069W        W74965  28.008  34.284   1.345
22070W        W74966  34.649  29.340  10.180
22071W        W74967   3.285  12.771   3.478
22072W        W74968  15.868  23.269  10.334
22073W        W74969  21.760  19.500   2.951
22074W        W74970   8.815  10.439   8.595
22075W        W74971   5.339   2.846   9.508
22076W        W74972   5.205  16.502   0.717
22077W        W74973   4.996   8.544   1.482
22078W        W74974  16.777  21.102   0.671
22079W        W74975  28.672  25.018   1.206
22080W        W74976  25.395  12.693   9.132
22081W        W74977  11.435  17.491   2.120
22082W        W74978  30.187  27.619   1.432
22083W        W74979  30.714   0.939   7.514
22084W        W74980   6.116  17.981   9.599
22085W        W74981  15.666  15.809   9.497
22086W        W74982  24.346  20.994   9.303
22087W        W74983  32.568   4.631   8.183
22088W        W74984  21.007  22.190   8.960
22089W        W74985  29.918  17.658   1.923
22090W        W74986  29.779   2.671   2.359
22091W        W74987  14.352   1.831   0.386
22092W        W74988  29.996   3.777   8.648
22093W        W74989  21.452  29.467   7.712
22094W        W74990   0.541  35.913   0.773
22095W        W74991  20.657  24.789   1.449
22096W        W74992  35.081  32.639   0.349
22097W        W74993  28.850  14.061   1.063
22098W        W74994   9.779  23.264   1.532
22099W        W74995  32.066  16.558   9.057
22100W        W74996   7.414  27.665   1.276
22101W        W74997  20.828   5.301   2.514
22102W        W74998   0.673  21.631   9.881
22103W        W74999  16.755  33.609   9.671
22104W        W75000  33.047  25.783   2.219
22105W        W75001  33.311   3.298   1.994
22106W        W75002   7.641  28.616   8.639
22107W        W75003  25.164  16.442   7.928
22108W        W75004  33.031  23.208   3.687
22109W        W75005  31.743  21.912   9.036
22110W        W75006  28.492  13.505   3.708
22111W        W75007   3.059  22.226   0.974
22112W        W75008   8.084   5.269   8.743
22113W        W75009   0.002  26.038   9.982
22114W        W75010  10.184  12.612   8.710
22115W        W75011  32.375  19.575   8.493
22116W        W75012  11.227  11.109   8.638
22117W        W75013  15.000  22.885   9.998
22118W        W75014  14.868  33.713   8.472
22119W        W75015  15.574   5.276   0.366
22120W        W75016  35.651  21.580   2.459
22121W        W75017  25.781  20.746   9.613
22122W        W75018  15.622   5.595   8.453
22123W        W75019  14.628   9.109   1.874
22124W        W75020   4.975  34.588   8.313
22125W        W75021   5.875  18.847   9.938
22126W        W75022  28.008  24.237   9.690
22127W        W75023  10.753   3.077   8.960
22128W        W75024  19.132   2.482   3.410
22129W        W75025  29.375  31.101   2.696
22130W        W75026  11.229  14.018   1.354
22131W        W75027  27.959  25.591   0.609
22132W        W75028  19.825  32.608   9.863
22133W        W75029   9.075  10.059   2.208
22134W        W75030  16.421  10.284  10.058
22135W        W75031  22.426   2.673   1.149
22136W        W75032  26.459  22.893   9.025
22137W        W75033  24.648  27.831   2.222
22138W        W75034  20.350  35.121   2.693
22139W        W75035  27.203   7.925   2.071
22140W        W75036  25.626  12.743   8.634
22141W        W75037  28.541   8.514   3.220
22142W        W75038   2.738  26.295   2.103
22143W        W75039  18.018  24.008   0.577
22144W        W75040  33.158  23.624  10.193
22145W        W75041   8.919   0.710   8.850
22146W        W75042  33.512  35.963  10.212
22147W        W75043  30.967  34.791   1.362
22148W        W75044   1.045  14.302   9.370
22149W        W75045  16.015  25.721   7.354
22150W        W75046   8.037  35.383   2.699
22151W        W75047  25.541  25.867  10.215
22152W        W75048  33.024   7.848   8.649
22153W        W75049  33.290  27.613   3.157
22154W        W75050  34.160  30.728   1.204
22155W        W75051  15.583   7.373   9.777
22156W        W75052   5.747   4.238   2.185
22157W        W75053  15.914  28.080   2.226
22158W        W75054  32.026   6.452   7.190
22159W        W75055  33.007  10.218   1.167
22160W        W75056   1.692   7.042   2.104
22161W        W75057  27.311  11.124   1.249
22162W        W75058   3.096  14.736   2.291
22163W        W75059  14.164  13.446   7.269
22164W        W75060  12.749  24.219  10.305
22165W        W75061   4.993   5.413   8.755
22166W        W75062  22.470   7.158   1.170
22167W        W75063  17.069   7.063   3.572
22168W        W75064  12.709  27.928   2.516
22169W        W75065   5.068  12.879   2.904
22170W        W75066  11.963  27.046   8.994
22171W        W75067  25.226  22.449   1.329
22172W        W75068  21.544  13.468   8.691
22173W        W75069   2.366  12.295   0.869
22174W        W75070  15.936  19.499   7.343
22175W        W75071  27.976  12.588   3.353
22176W        W75072  23.907   5.317   7.774
22177W        W75073   0.040   1.604   8.838
22178W        W75074   6.530  24.914   0.023
22179W        W75075   6.095  14.872   0.616
22180W        W75076   6.163  35.535   0.318
22181W        W75077   6.072  33.405   1.260
22182W        W75078  24.922  10.841   9.142
22183W        W75079  16.113  11.539   1.658
22184W        W75080  30.921  24.185   2.747
22185W        W75081  15.325  15.748   7.349
22186W        W75082  15.413   1.968   1.786
22187W        W75083  18.705  16.315   9.149
22188W        W75084  31.586   0.797   1.512
22189W        W75085  32.378  23.633   9.381
22190W        W75086  25.058  27.985   2.474
22191W        W75087  26.800  34.872   0.402
22192W        W75088  33.763   7.760   2.932
22193W        W75089  15.694   4.308   8.634
22194W        W75090  22.780  12.246   2.451
22195W        W75091   9.852  29.795   9.235
22196W        W75092  24.304  12.306   2.913
22197W        W75093  29.354   8.726   8.883
22198W        W75094  14.244  17.102   2.497
22199W        W75095  24.177  15.651   2.186
22200W        W75096  18.720   5.673   9.793
22201W        W75097  20.906  30.586   2.727
22202W        W75098  23.451  13.179   9.573
22203W        W75099  16.269  25.643  10.110
22204W        W75100  25.386   6.558   9.856
22205W        W75101  24.303  30.766   0.416
22206W        W75102  12.834  13.937   3.183
22207W        W75103  19.629  11.801  10.125
22208W        W75104  10.565   9.120   3.645
22209W        W75105  16.138  14.476   0.728
22210W        W75106  31.641  33.445   9.820
22211W        W75107  33.978  28.465   1.538
22212W        W75108   6.974  25.497   3.280
22213W        W75109   4.366  11.584   8.153
22214W        W75110  17.075  16.603   8.698
22215W        W75111  32.580  25.637   1.043
22216W        W75112  10.312  18.972   7.870
22217W        W75113   8.648  15.608   0.531
22218W        W75114  24.653   7.548   0.336
22219W        W75115  30.840  11.800   1.002
22220W        W75116  35.050  25.535   9.614
22221W        W75117   2.507  17.977   9.801
22222W        W75118   2.866  14.182   2.916
22223W        W75119  10.065  22.170   7.630
22224W        W75120   0.136  34.324   8.851
22225W        W75121  27.385  20.948   2.021
22226W        W75122  11.119   1.069   1.144
22227W        W75123  21.424  23.238   1.490
22228W        W75124  34.781   0.608   8.346
22229W        W75125  25.789   1.303   9.401
22230W        W75126  14.286   3.761   7.331
22231W        W75127   6.895  12.682   9.215
22232W        W75128  14.164  11.863   3.193
22233W        W75129  29.917  25.612   8.649
22234W        W75130  10.056   3.554   8.315
22235W        W75131  30.552   8.304   0.301
22236W        W75132   9.511  21.943   8.263
22237W        W75133  14.587  26.350   0.304
22238W        W75134  27.744   2.867   1.753
22239W        W75135   1.716  35.394  10.327
22240W        W75136   9.131   2.524   6.991
22241W        W75137  10.575   2.699   6.996
22242W        W75138  20.294  25.530   0.717
22243W        W75139  28.067  12.935   9.044
22244W        W75140  25.466   8.001   7.887
22245W        W75141  17.514  32.593  10.115
22246W        W75142   2.709  21.422   2.570
22247W        W75143   0.107  14.478   3.793
22248W        W75144  28.908  30.018   9.196
22249W        W75145  33.213  28.433   1.105
22250W        W75146  22.767  18.060   9.924
22251W        W75147   5.597  24.056   2.809
22252W        W75148  31.720   1.812   7.492
22253W        W75149  29.646  12.861   9.841
22254W        W75150   1.450  14.540   2.029
22255W        W75151  24.159  17.853   3.843
22256W        W75152  19.434  34.871  10.000
22257W        W75153  10.551  30.844   2.253
22258W        W75154  18.525   8.469   7.739
22259W        W75155  28.017  34.760   1.612
22260W        W75156  32.557  23.964   8.973
22261W        W75157  12.164  26.241   9.063
22262W        W75158   0.526   7.798  10.153
22263W        W75159  34.255  19.174   7.559
22264W        W75160   7.427   1.507   9.366
22265W        W75161  28.002  14.079   2.586
22266W        W75162   7.928  10.356  10.064
22267W        W75163   9.199  28.866   7.842
22268W        W75164  17.365  18.113   8.720
22269W        W75165   4.389   6.402   2.207
22270W        W75166   4.256  15.270   7.649
22271W        W75167   6.685  18.583   2.716
22272W        W75168   1.765  31.384   0.421
22273W        W75169  29.825   9.518   0.269
22274W        W75170  25.679  19.796   7.652
22275W        W75171   4.917  10.272   8.114
22276W        W75172   2.154  31.801   1.500
22277W        W75173  15.892  33.350   0.535
22278W        W75174  32.358  16.016   3.136
22279W        W75175   6.100   4.437   8.925
22280W        W75176   6.632  20.037   9.885
22281W        W75177   2.297  20.876   1.317
22282W        W75178  25.314   7.248   1.740
22283W        W75179  10.378   7.189   8.556
22284W        W75180   1.508  17.434   7.510
22285W        W75181  32.374  19.732   3.952
22286W        W75182  30.280  12.306   0.555
22287W        W75183  25.399  11.734   3.594
22288W        W75184  23.470   5.139   9.408
22289W        W75185   4.409  22.743   7.170
22290W        W75186  27.784  35.244   8.054
22291W        W75187  32.806  22.206   2.145
22292W        W75188  26.368  20.443   3.503
22293W        W75189  34.361  17.688   8.077
22294W        W75190   5.599   3.438   8.188
22295W        W75191  30.333  17.555   2.879
22296W        W75192  32.400   7.133   2.441
22297W        W75193  19.771  33.569  10.231
22298W        W75194  24.549  31.292   0.691
22299W        W75195  28.748  20.662   3.175
22300W        W75196  26.407  14.033   2.807
22301W        W75197  13.508  12.779   2.845
22302W        W75198  31.044  34.782   8.600
22303W        W75199  32.264   0.314   7.064
22304W        W75200  30.644  12.048   0.058
22305W        W75201  19.769   3.224   1.787
22306W        W75202  22.582   0.931   8.869
22307W        W75203  26.725   1.477   8.467
22308W        W75204   6.044   6.229   0.358
22309W        W75205   9.790  12.393   1.404
22310W        W75206  25.985   3.333   2.205
22311W        W75207  15.675  22.822   0.844
22312W        W75208   4.734  28.864  10.032
22313W        W75209   2.339   8.243   1.497
22314W        W75210  16.438  29.041   8.670
22315W        W75211  14.112   8.400   8.449
22316W        W75212   7.243  31.406   1.864
22317W        W75213  22.321  31.960   2.793
22318W        W75214  27.475  20.028   7.249
22319W        W75215   1.727  12.698   9.748
22320W        W75216  27.734  15.738   9.408
22321W        W75217  14.709  12.343  10.283
22322W        W75218  28.684   1.937   8.181
22323W        W75219  18.603  17.819   8.142
22324W        W75220  12.566  17.513   7.441
22325W        W75221  31.073  11.227   0.227
22326W        W75222  35.925  35.354   8.237
22327W        W75223  17.156  17.909   2.704
22328W        W75224   4.158  16.861   1.011
22329W        W75225   2.857  35.852   3.401
22330W        W75226  16.092   5.698   0.754
22331W        W75227  10.982   8.297   7.716
22332W        W75228   0.570  17.324   2.496
22333W        W75229   0.623   3.574   0.661
22334W        W75230  10.978  24.504   6.563
22335W        W75231  30.213  12.301  10.293
22336W        W75232  29.631   6.392   0.501
22337W        W75233  32.418   0.100   8.560
22338W        W75234   5.691  15.590   2.921
22339W        W75235  29.081  14.838   8.012
22340W        W75236  21.921  35.842   2.536
22341W        W75237  17.323  25.572   2.261
22342W        W75238   1.094  14.022   0.121
22343W        W75239  32.776  11.711   7.747
22344W        W75240  12.813   5.093   0.220
22345W        W75241   8.020  28.636   0.638
22346W        W75242  15.633  11.281   1.469
22347W        W75243  21.723  20.752   8.526
22348W        W75244  19.694  12.018   0.696
22349W        W75245  23.123  26.576   1.977
22350W        W75246   3.859  14.856   8.375
22351W        W75247  15.878  24.977   8.029
22352W        W75248  16.376  18.972   9.510
22353W        W75249   2.091  21.954   9.373
22354W        W75250  21.585  33.168   1.711
22355W        W75251   8.180  13.800   7.710
22356W        W75252  35.979  35.636   0.718
22357W        W75253  30.952  24.259   0.849
22358W        W75254  13.639   8.395   8.613
22359W        W75255  21.105  13.290   9.180
22360W        W75256  17.109  19.382   8.835
22361W        W75257  14.010  31.332   9.539
22362W        W75258  11.487   1.889   7.484
22363W        W75259  31.417   0.541   2.889
22364W        W75260   1.985  12.631   0.835
22365W        W75261  12.677   9.774   0.362
22366W        W75262  11.468  20.123   0.495
22367W        W75263   1.202   3.500   2.024
22368W        W75264   2.984  12.610   8.711
22369W        W75265  24.991  15.373   1.854
22370W        W75266   2.274  10.598   0.723
22371W        W75267  19.538   9.375   3.814
22372W        W75268   3.636  24.105   8.425
22373W        W75269   5.059  32.251   3.174
22374W        W75270   2.030  24.845   4.600
22375W        W75271   1.008  17.310   7.438
22376W        W75272  12.630   8.671   8.276
22377W        W75273  31.763   2.866   2.501
22378W        W75274   8.009   5.721   1.136
22379W        W75275  31.935   5.079   9.199
22380W        W75276  25.292  10.403   0.796
22381W        W75277   5.301   8.166   3.882
22382W        W75278   6.395  19.134   9.312
22383W        W75279   8.656  27.974   0.257
22384W        W75280  13.233  18.949   1.369
22385W        W75281   2.360   4.399   8.484
22386W        W75282   2.783  32.710  10.153
22387W        W75283   4.177  13.394   1.633
22388W        W75284  28.903  14.983   1.367
22389W        W75285  20.155  21.804   8.684
22390W        W75286   5.591   0.818   2.528
22391W        W75287  13.993  18.336   0.264
22392W        W75288  13.887  10.276   9.117
22393W        W75289  35.650  26.293   8.262
22394W        W75290  10.900  21.453   6.424
22395W        W75291  17.557  33.566   9.555
22396W        W75292   4.765   3.115   8.800
22397W        W75293  30.681  30.772   8.457
22398W        W75294  26.781  20.143   1.657
22399W        W75295   3.693  30.999   9.459
22400W        W75296  35.329  13.752   1.612
22401W        W75297   9.374  14.176   9.921
22402W        W75298   1.096  23.139   9.377
22403W        W75299  15.796  35.910   7.293
22404W        W75300  34.241  19.831   9.715
22405W        W75301   5.916   9.863   7.859
22406W        W75302   2.396  35.172   1.521
22407W        W75303  26.841  30.636   7.144
22408W        W75304  20.264  10.798   2.555
22409W        W75305   5.937  13.198   9.698
22410W        W75306  16.853  28.764   9.939
22411W        W75307  30.031   5.891   7.074
22412W        W75308  17.439  15.129   9.430
22413W        W75309  31.658  12.995   9.329
22414W        W75310   5.190   7.945   9.573
22415W        W75311  29.325  31.528   7.457
22416W        W75312   0.488   2.722   7.510
22417W        W75313   9.917  32.403   7.969
22418W        W75314   3.678  33.588   1.692
22419W        W75315  21.517  24.684   7.873
22420W        W75316  22.780  21.216   3.243
22421W        W75317  29.087  30.853   1.449
22422W        W75318  14.071  10.026   2.273
22423W        W75319   6.898   2.358  10.156
22424W        W75320  18.581  22.715   2.577
22425W        W75321  25.810  23.233   8.266
22426W        W75322  31.630  25.136   8.335
22427W        W75323   1.793   3.247   9.776
22428W        W75324  18.508   8.369   3.252
22429W        W75325  14.828  17.282   2.441
22430W        W75326  17.377   9.962   0.460
22431W        W75327  34.645   7.267   2.876
22432W        W75328  11.430  19.271  10.187
22433W        W75329   2.273  27.408   9.800
22434W        W75330   9.283   0.007   2.000
22435W        W75331  22.465   2.780   8.816
22436W        W75332  14.989  27.398   9.907
22437W        W75333   4.964   5.510   7.985
22438W        W75334  19.374   1.395   8.699
22439W        W75335  31.314  20.258   9.365
22440W        W75336  20.762  22.631   8.819
22441W        W75337   1.472  25.521   2.718
22442W        W75338  21.622  30.236   1.447
22443W        W75339  28.403  15.348   9.563
22444W        W75340  16.707  23.582   9.171
22445W        W75341   3.284  27.548   9.467
22446W        W75342  13.456   1.830   7.650
22447W        W75343  19.545  29.356   8.254
22448W        W75344  25.942  21.366   1.745
22449W        W75345  33.593  13.565   9.096
22450W        W75346   7.170  29.048   1.719
22451W        W75347   4.145  17.568   8.216
22452W        W75348  35.750   4.840   7.812
22453W        W75349  18.807  22.616   0.614
22454W        W75350   1.686  11.309   8.838
22455W        W75351   6.846   8.417   0.167
22456W        W75352  22.112  17.697   0.201
22457W        W75353  32.592  35.467   9.089
22458W        W75354  22.895  17.236   1.215
22459W        W75355   2.697  33.610   2.367
22460W        W75356   9.015   3.793   8.523
22461W        W75357  34.370   0.724   1.562
22462W        W75358  26.881  18.918   9.802
22463W        W75359  12.259  10.597   7.710
22464W        W75360  14.747   8.282   2.441
22465W        W75361  12.432  34.014   7.913
22466W        W75362  21.304  16.115   7.960
22467W        W75363   7.291  29.021   0.370
22468W        W75364  10.925   6.921   7.637
22469W        W75365  22.720   4.426   9.302
22470W        W75366  11.935  15.275   0.894
22471W        W75367   0.216  11.228   0.405
22472W        W75368  30.271   1.122   0.631
22473W        W75369  18.379  21.008   2.639
22474W        W75370  17.024  11.219   2.108
22475W        W75371  19.240  30.337   9.244
22476W        W75372  35.277  17.652   9.163
22477W        W75373   5.199  32.730   9.024
22478W        W75374  22.473  20.958   2.969
22479W        W75375  34.812  28.222  10.278
22480W        W75376  24.075  24.846   0.185
22481W        W75377  12.028  17.662   8.676
22482W        W75378   8.791  24.553   2.318
22483W        W75379  22.783  21.266   0.842
22484W        W75380   0.746  25.177  10.049
22485W        W75381  16.318  15.346   0.494
22486W        W75382  24.920  11.170   1.905
22487W        W75383  17.805  27.216   1.466
22488W        W75384   6.224  17.787   3.184
22489W        W75385  20.650  14.285   9.139
22490W        W75386  13.367   0.221   8.986
22491W        W75387  14.373  35.324   9.599
22492W        W75388  31.776   8.036   8.413
22493W        W75389  31.293  24.628   2.566
22494W        W75390   8.527  22.408   0.526
22495W        W75391   0.457   3.649   1.945
22496W        W75392  33.762   3.280   9.039
22497W        W75393   8.137  27.879   9.518
22498W        W75394  22.965   1.197   9.640
22499W        W75395  31.097  35.469   0.517
22500W        W75396  20.853   7.107   1.538
22501W        W75397  18.434   9.629   0.729
22502W        W75398   7.906  12.570  10.166
22503W        W75399   5.429   9.873   7.763
22504W        W75400  16.471   8.762   8.287
22505W        W75401   3.898  12.630   9.759
22506W        W75402  14.078  18.910   9.802
22507W        W75403   2.983   8.847   0.370
22508W        W75404   6.814   0.832   0.246
22509W        W75405  19.632   1.661   2.235
22510W        W75406   1.842  33.095   0.100
22511W        W75407  31.918  28.733   7.436
22512W        W75408   9.120  19.823   7.455
22513W        W75409  19.396  17.226   2.706
22514W        W75410  20.105   8.929   8.170
22515W        W75411  24.021   0.887   0.914
22516W        W75412  23.266   3.367   7.148
22517W        W75413   8.692  20.256   0.379
22518W        W75414  17.723  25.330   8.269
22519W        W75415  13.484  27.527   0.992
22520W        W75416  33.544  12.232   7.595
22521W        W75417  28.667  21.184   9.533
22522W        W75418  22.999   6.248   9.025
22523W        W75419  29.958   4.194   9.562
22524W        W75420   0.207  22.891   2.006
22525W        W75421  30.424  14.426   0.106
22526W        W75422  13.503   0.547   9.673
22527W        W75423  15.419  24.979   9.826
22528W        W75424  25.217  24.302   2.923
22529W        W75425  18.767   5.956   0.994
22530W        W75426  22.210  22.921   0.573
22531W        W75427  18.679   8.701   9.737
22532W        W75428   4.088   6.024   9.242
22533W        W75429  14.927  15.711   3.298
22534W        W75430  20.684  10.086   0.888
22535W        W75431  27.367   3.249   1.896
22536W        W75432  34.811  19.273   0.279
22537W        W75433  32.121  12.835   9.184
22538W        W75434  16.722  30.716   1.661
22539W        W75435   7.339   1.204   0.810
22540W        W75436  21.468  21.349   0.782
22541W        W75437  31.967   9.133   9.645
22542W        W75438  33.077   4.853   7.614
22543W        W75439  28.923  20.113   1.852
22544W        W75440  32.552  11.219   1.433
22545W        W75441  16.529   4.690   8.813
22546W        W75442  31.637  29.556   9.770
22547W        W75443   0.347  12.792   1.457
22548W        W75444  32.865  20.899   9.260
22549W        W75445  21.326  33.197   0.593
22550W        W75446   2.274  21.383   1.552
22551W        W75447   5.040  13.549   3.556
22552W        W75448  22.798  11.535   0.762
22553W        W75449   8.121  35.747   0.991
22554W        W75450  24.627  27.167   9.062
22555W        W75451   2.951  23.435   9.119
22556W        W75452  20.791  21.919  10.239
22557W        W75453  11.152  12.750   1.032
22558W        W75454   5.747   3.334   0.008
22559W        W75455   0.716   4.487   8.220
22560W        W75456  30.137  22.098   8.675
22561W        W75457   0.293  29.287   2.238
22562W        W75458   6.647   4.042   8.556
22563W        W75459  26.038  19.615   2.577
22564W        W75460  26.614  23.754   9.536
22565W        W75461  12.202  28.515   9.750
22566W        W75462  18.074   9.760   9.423
22567W        W75463  15.829  25.523   8.828
22568W        W75464  27.594  10.952   0.402
22569W        W75465  18.512   4.361   9.781
22570W        W75466   1.182  32.625   1.809
22571W        W75467  26.476  25.851   3.123
22572W        W75468  27.708  29.640   1.834
22573W        W75469   7.539   2.108   0.190
22574W        W75470  22.212   8.120   8.793
22575W        W75471  17.690   9.698   9.692
22576W        W75472  30.081  29.061   0.031
22577W        W75473   4.866  10.586   3.198
22578W        W75474  20.912  15.865   0.770
22579W        W75475  35.442   8.871   2.510
22580W        W75476   2.542  22.789   9.388
22581W        W75477  12.662  17.919   2.116
22582W        W75478   6.541   4.498   9.932
22583W        W75479   2.339  24.268   2.446
22584W        W75480  15.628   9.365   2.892
22585W        W75481  21.089  24.935   1.645
22586W        W75482   2.252  23.830   1.813
22587W        W75483  11.824   9.166   8.694
22588W        W75484  22.401   1.470   8.887
22589W        W75485  28.588  21.601   9.160
22590W        W75486  12.710  22.826  10.194
22591W        W75487  21.296  33.751   1.319
22592W        W75488   9.964   1.678   9.218
22593W        W75489  20.038  15.960   2.631
22594W        W75490   5.651  20.170   2.971
22595W        W75491   6.482  25.579   2.179
22596W        W75492  28.543   6.249   1.472
22597W        W75493   8.216   7.126   6.939
22598W        W75494  18.318  11.947   8.074
22599W        W75495  24.722  18.089   0.883
22600W        W75496  29.157  21.374   7.754
22601W        W75497  20.600   3.724   8.132
22602W        W75498  25.773  29.673   2.020
22603W        W75499  17.328  27.944   9.060
22604W        W75500  11.906  24.687   6.646
22605W        W75501  20.312   1.761   1.609
22606W        W75502  17.436  22.230   2.222
22607W        W75503  21.791  33.706   9.333
22608W        W75504  33.365   7.381   2.492
22609W        W75505  29.146  17.221   0.949
22610W        W75506  30.990   0.532   9.825
22611W        W75507  17.160   6.389   2.681
22612W        W75508  24.531  10.585   9.863
22613W        W75509  22.639  12.269   9.001
22614W        W75510  18.168   1.647   2.545
22615W        W75511  26.709   6.096   2.706
22616W        W75512   0.520  20.643   2.056
22617W        W75513  32.831  21.620   0.456
22618W        W75514  33.170  15.102  10.280
22619W        W75515  34.327  13.728   9.579
22620W        W75516  33.513  14.259   2.029
22621W        W75517  10.907  24.293   7.857
22622W        W75518   5.538   1.667   9.438
22623W        W75519   9.984   2.175   3.043
22624W        W75520  17.779  34.653   9.199
22625W        W75521  32.323  20.268   2.486
22626W        W75522  20.375   8.833   3.383
22627W        W75523  21.166  27.281   8.364
22628W        W75524  34.943  25.054   0.941
22629W        W75525   2.672  15.069   9.894
22630W        W75526  35.840  31.283   8.358
22631W        W75527  34.029  20.258   1.193
22632W        W75528   7.114   1.323   3.019
22633W        W75529  24.983  24.504   8.011
22634W        W75530  26.189   0.686   9.389
22635W        W75531  11.240  34.068   2.403
22636W        W75532  33.679  30.968   3.170
22637W        W75533  27.410  12.303   8.009
22638W        W75534   0.580  35.514   9.725
22639W        W75535  18.748  25.591   9.353
22640W        W75536   9.558   2.241   0.666
22641W        W75537  27.154   8.117   9.640
22642W        W75538  34.071  33.798   8.097
22643W        W75539   4.761  34.831   1.214
22644W        W75540   0.832  22.279   1.010
22645W        W75541  33.638  10.149   7.845
22646W        W75542  14.232  13.524   2.094
22647W        W75543  21.211  21.711   2.866
22648W        W75544  35.015  16.791   8.931
22649W        W75545  25.189  20.322   3.174
22650W        W75546  23.824  31.134   0.164
22651W        W75547  21.062  15.690   3.237
22652W        W75548  17.206  17.033   8.904
22653W        W75549  31.333   6.214   1.607
22654W        W75550   8.706  25.966   7.719
22655W        W75551  32.496  12.925   9.942
22656W        W75552  17.557   1.597   1.514
22657W        W75553  18.111  21.654   0.710
22658W        W75554  30.861  24.348   1.988
22659W        W75555  34.093  32.888   8.251
22660W        W75556  12.198   4.443   8.043
22661W        W75557  26.171  29.391   1.437
22662W        W75558   7.233   7.456   1.234
22663W        W75559  19.370  28.500   2.197
22664W        W75560  11.712  31.616   1.039
22665W        W75561  19.148   1.466   2.010
22666W        W75562  12.507  22.183   0.479
22667W        W75563   2.532  14.650   9.372
22668W        W75564  18.781  17.282   0.209
22669W        W75565  17.190  13.154   8.085
22670W        W75566  14.593  13.427   0.749
22671W        W75567  33.298   3.858   3.652
22672W        W75568  35.308  26.160   9.073
22673W        W75569   3.148  16.775   7.827
22674W        W75570  26.644   9.287   8.134
22675W        W75571   0.877  20.657   3.510
22676W        W75572   7.278  22.551   2.357
22677W        W75573   8.032  31.946   0.113
22678W        W75574   3.594  22.732   0.337
22679W        W75575  14.064  14.376   0.430
22680W        W75576  18.093   0.738   2.208
22681W        W75577  31.551  20.228   0.698
22682W        W75578  30.424   0.259   7.272
22683W        W75579   6.715  25.173   2.988
22684W        W75580  28.305  13.473   9.777
22685W        W75581  25.952  14.134   9.750
22686W        W75582  16.013  10.822   9.615
22687W        W75583   2.105   6.135   0.913
22688W        W75584   8.022   2.416   2.314
22689W        W75585  25.199  29.222   1.833
22690W        W75586   4.639   7.635   3.210
22691W        W75587   9.312  12.867   2.048
22692W        W75588  25.769  27.377   1.458
22693W        W75589  15.751   1.860   9.060
22694W        W75590   5.557   5.376   8.857
22695W        W75591  32.423  12.746   0.822
22696W        W75592  30.322  10.718   3.055
22697W        W75593  15.852  25.425   2.822
22698W        W75594   8.371  21.312   0.748
22699W        W75595  18.487  28.178   3.029
22700W        W75596  17.462  18.613   3.094
22701W        W75597  24.069  13.966   7.849
22702W        W75598  25.262  12.701   1.444
22703W        W75599   0.416   4.242   8.594
22704W        W75600  24.604  14.923   2.697
22705W        W75601   4.486  29.977   0.659
22706W        W75602  19.771   3.057   0.656
22707W        W75603  28.202  15.801  10.312
22708W        W75604  27.658  28.632   1.871
22709W        W75605  35.774  35.133   2.581
22710W        W75606   5.882  16.528   2.549
22711W        W75607   2.367  26.180   2.378
22712W        W75608  13.908  35.972   2.399
22713W        W75609  21.977  32.278  10.116
22714W        W75610   8.009  34.436   9.749
22715W        W75611   0.214  30.478   9.936
22716W        W75612   6.473   6.279   8.449
22717W        W75613   5.479   0.300   9.224
22718W        W75614  25.667  31.699   0.320
22719W        W75615   9.829  30.432   1.650
22720W        W75616  30.296  25.588   3.241
22721W        W75617  22.423  14.801   2.948
22722W        W75618  22.874  28.317   0.951
22723W        W75619  26.225   2.922   2.393
22724W        W75620  26.692  20.927   8.639
22725W        W75621  16.094  16.135   9.450
22726W        W75622  33.084  25.414   0.952
22727W        W75623  26.095  16.500   1.051
22728W        W75624  21.802  11.178   7.354
22729W        W75625  15.199  35.543   8.370
22730W        W75626  19.030  18.241   0.199
22731W        W75627  13.371  31.324   0.005
22732W        W75628  13.667  20.332   2.192
22733W        W75629  21.266  26.574   7.720
22734W        W75630  15.256  26.124   8.272
22735W        W75631  22.221   0.706   0.622
22736W        W75632   2.582   1.288   2.209
22737W        W75633  35.978   1.550   0.774
22738W        W75634   0.811  31.130   9.474
22739W        W75635  27.028  27.561   0.553
22740W        W75636   1.823  13.371   2.437
22741W        W75637  19.074  32.723   2.895
22742W        W75638   8.277  20.036   0.155
22743W        W75639   0.305  20.095   8.305
22744W        W75640  33.613  10.036   9.441
22745W        W75641   9.243  32.784   2.198
22746W        W75642  15.993   3.500   9.660
22747W        W75643  21.199  30.805   8.467
22748W        W75644   6.197  24.187   1.073
22749W        W75645   6.979  25.694   2.138
22750W        W75646  18.394   3.226   1.429
22751W        W75647   1.869  20.661   8.669
22752W        W75648  26.066   2.935   2.907
22753W        W75649  15.097   2.335   0.930
22754W        W75650  17.308  21.800   2.471
22755W        W75651   9.524   5.138   0.098
22756W        W75652  34.544   0.573   7.918
22757W        W75653   6.969  25.033   0.208
22758W        W75654  35.872  11.574   3.603
22759W        W75655   5.214  20.504   9.748
22760W        W75656  24.893  20.406   9.960
22761W        W75657   3.698   8.504   8.479
22762W        W75658   4.024  12.817  10.208
22763W        W75659  33.923  29.460   8.467
22764W        W75660  10.242  10.185   8.158
22765W        W75661  22.626  26.152   7.214
22766W        W75662   0.965   0.669   0.897
22767W        W75663   9.275  11.191   8.425
22768W        W75664  27.066   2.773   9.641
22769W        W75665  35.148   6.325   3.180
22770W        W75666   1.612   6.322   2.698
22771W        W75667  14.393  19.173   3.837
22772W        W75668   1.612  28.361   2.344
22773W        W75669   0.322  19.920   3.364
22774W        W75670  10.125   7.423   0.920
22775W        W75671  12.689  16.358   0.318
22776W        W75672   6.279  30.331   0.690
22777W        W75673  29.732  30.165   9.645
22778W        W75674  13.230  22.875  10.167
22779W        W75675   6.368  12.512   2.135
22780W        W75676   1.382  16.284   1.132
22781W        W75677  25.130   9.103   0.159
22782W        W75678  31.589  32.100   8.017
22783W        W75679  35.860   8.394   7.912
22784W        W75680   3.459  27.414   2.156
22785W        W75681  15.657   0.883   0.120
22786W        W75682  15.281  26.079   0.839
22787W        W75683  31.117  16.147   2.491
22788W        W75684  10.934  14.203   7.386
22789W        W75685   7.434  32.787   2.385
22790W        W75686  35.252  13.373   3.470
22791W        W75687   3.810  13.093   2.722
22792W        W75688  28.550  26.558   2.256
22793W        W75689  25.778   1.185   2.991
22794W        W75690   2.457  19.659   2.333
22795W        W75691  21.502  29.783   7.184
22796W        W75692  28.327   2.577   0.866
22797W        W75693  13.583  18.278   2.285
22798W        W75694  15.746  35.691   2.133
22799W        W75695  23.686   9.429   3.863
22800W        W75696  15.073   6.256   1.766
22801W        W75697  11.800  14.918   2.488
22802W        W75698  32.299   4.542  10.097
22803W        W75699   0.974  26.237  10.122
22804W        W75700   5.882  28.119   1.498
22805W        W75701  11.009  12.681   0.003
22806W        W75702  34.495  35.007   1.888
22807W        W75703   3.801   0.066   1.386
22808W        W75704  15.328  10.538   9.251
22809W        W75705  12.616   5.741   9.510
22810W        W75706  13.343   8.099   1.584
22811W        W75707  24.130  21.110   2.981
22812W        W75708  31.883   9.746   2.712
22813W        W75709   8.372  28.948  10.247
22814W        W75710  22.860  22.275   9.925
22815W        W75711  10.307  18.159   2.449
22816W        W75712  14.817  32.205   2.074
22817W        W75713  24.004   1.154   2.471
22818W        W75714  16.199   1.586   9.022
22819W        W75715  29.107   6.385   1.537
22820W        W75716   9.072  14.335   1.988
22821W        W75717  21.792   5.507   1.640
22822W        W75718  34.292   4.345   7.795
22823W        W75719  24.787  27.430   0.602
22824W        W75720   4.024  18.092   8.702
22825W        W75721   7.206   6.264   0.553
22826W        W75722  17.588   4.501   9.715
22827W        W75723  31.583  17.257   2.529
22828W        W75724   7.218   1.911   8.627
22829W        W75725   9.662   0.363   1.890
22830W        W75726  21.912  25.554   0.068
22831W        W75727  32.307  11.343   7.149
22832W        W75728  19.268   9.652   2.131
22833W        W75729  22.988   6.972  10.303
22834W        W75730  33.600   7.188   8.914
22835W        W75731  16.015   8.689   9.043
22836W        W75732  11.219  30.758   0.839
22837W        W75733  28.879  11.204   1.372
22838W        W75734  26.506  24.727   0.984
22839W        W75735  35.682   6.080   7.624
22840W        W75736   4.674  33.825   2.701
22841W        W75737  14.227  23.930   8.412
22842W        W75738   4.276  14.838   1.429
22843W        W75739  14.592  18.409   9.845
22844W        W75740  23.617  33.259   0.409
22845W        W75741   9.408   2.235   7.879
22846W        W75742  11.066   9.297   9.005
22847W        W75743   7.865   9.492   3.249
22848W        W75744  34.039  11.340   0.329
22849W        W75745   1.611  15.142   9.942
22850W        W75746   2.541   6.650   0.691
22851W        W75747  26.399  30.458   8.303
22852W        W75748   0.606  12.330   0.147
22853W        W75749  14.175  17.500   3.382
22854W        W75750   8.437   6.280   2.595
22855W        W75751  32.747  25.811   9.242
22856W        W75752  19.488  15.225   2.098
22857W        W75753  22.504  23.891   7.575
22858W        W75754   6.938   6.376   9.024
22859W        W75755  15.152  34.226   2.420
22860W        W75756  16.977   2.668   9.321
22861W        W75757  11.883   8.736   8.995
22862W        W75758  26.838   4.941   0.341
22863W        W75759   9.231  28.956   1.751
22864W        W75760  12.906   9.202   2.798
22865W        W75761  22.472  31.779   9.635
22866W        W75762   1.427  34.245   9.776
22867W        W75763   2.078  20.262   9.795
22868W        W75764   1.638   9.237   0.167
22869W        W75765  17.029  16.942   1.037
22870W        W75766   0.952  21.068   3.168
22871W        W75767  29.112   9.125   1.077
22872W        W75768  34.768  27.856   8.483
22873W        W75769  30.119   7.441   2.526
22874W        W75770  20.225  25.135   8.116
22875W        W75771   5.097  32.841   7.956
22876W        W75772  22.392   5.107   0.937
22877W        W75773  19.089  17.144   9.462
22878W        W75774  10.285  17.352   8.933
22879W        W75775  20.605   9.582   2.714
22880W        W75776  23.339  35.282   0.311
22881W        W75777  28.074  13.237   2.507
22882W        W75778  16.625   4.321   9.692
22883W        W75779  35.709  27.023   1.155
22884W        W75780  32.936  16.930   0.806
22885W        W75781  14.200  25.680   7.293
22886W        W75782  20.106  30.786   8.926
22887W        W75783  24.748  33.290   3.461
22888W        W75784  24.994  11.487   9.918
22889W        W75785   0.717   4.782   1.887
22890W        W75786  26.185  23.172   8.718
22891W        W75787   6.768   7.046   2.184
22892W        W75788  33.869  24.561   9.537
22893W        W75789  27.313   6.178   7.770
22894W        W75790  12.885  28.397   2.339
22895W        W75791  31.184   9.792   0.372
22896W        W75792  15.297   3.185   0.123
22897W        W75793   7.823   6.571   7.483
22898W        W75794  31.225  32.664   9.220
22899W        W75795  24.481  28.677   2.770
22900W        W75796   7.303  34.250   9.032
22901W        W75797   0.742  34.099   0.347
22902W        W75798  16.672  18.880   1.895
22903W        W75799  26.189   7.587   7.932
22904W        W75800  10.582  25.045  10.006
22905W        W75801   5.385   7.745   8.629
22906W        W75802   1.418  18.505   3.348
22907W        W75803  18.595   3.757   0.323
22908W        W75804   8.437  23.317   2.784
22909W        W75805   2.415   4.560   0.427
22910W        W75806  13.476   5.870   9.773
22911W        W75807   2.500  17.456   9.761
22912W        W75808   4.532  13.138   0.346
22913W        W75809   4.274  21.829   7.359
22914W        W75810  24.360   7.229   0.011
22915W        W75811  14.359  14.212   9.670
22916W        W75812  32.362  13.272   2.492
22917W        W75813  19.930  14.666   3.090
22918W        W75814   0.241  12.709   0.392
22919W        W75815  18.728  11.474   0.919
22920W        W75816  12.646  35.668   9.374
22921W        W75817  19.088  11.458   3.428
22922W        W75818  20.622   2.607   2.228
22923W        W75819  17.563  16.459   9.669
22924W        W75820  15.810  30.694   8.846
22925W        W75821  26.462  12.004   9.018
22926W        W75822  21.485  11.003   9.460
22927W        W75823  35.676  22.380   8.752
22928W        W75824   5.549   0.794   8.558
22929W        W75825  25.497  34.775   2.008
22930W        W75826  14.968  35.973   1.630
22931W        W75827  17.812  33.435   2.173
22932W        W75828  18.306  12.592   2.794
22933W        W75829   3.088  24.669   4.080
22934W        W75830   0.914  12.667   2.343
22935W        W75831  25.525  33.618   9.333
22936W        W75832   3.776  17.957   7.476
22937W        W75833  24.562   6.042   3.108
22938W        W75834  11.345  12.759   1.625
22939W        W75835  23.688  11.200   8.348
22940W        W75836  22.085  20.692   3.128
22941W        W75837   5.167   2.722  10.318
22942W        W75838   0.047  34.090   2.270
22943W        W75839  29.369  14.697   1.309
22944W        W75840   0.301   2.425   3.185
22945W        W75841  15.561  25.786   0.529
22946W        W75842  13.533  21.139   1.124
22947W        W75843  17.126  21.310   0.276
22948W        W75844   5.082  19.934   8.507
22949W        W75845   3.606   8.787   2.735
22950W        W75846  33.438   4.171   1.369
22951W        W75847   9.116   6.413   1.754
22952W        W75848  14.567  11.779   2.131
22953W        W75849  10.367  20.595   9.184
22954W        W75850  34.175  34.808   9.922
22955W        W75851  12.337  17.414   8.360
22956W        W75852  23.805  11.151   0.713
22957W        W75853  16.476  25.123   1.437
22958W        W75854   4.824  18.770   7.355
22959W        W75855   6.037  31.271   0.936
22960W        W75856   6.395  20.755   7.019
22961W        W75857   4.909  29.308   8.042
22962W        W75858  22.975  22.582   7.904
22963W        W75859  11.643  29.133   2.277
22964W        W75860   0.959  10.751   0.841
22965W        W75861  29.586  31.262   0.973
22966W        W75862  19.460  28.773   1.812
22967W        W75863  31.144   3.125   7.463
22968W        W75864  14.085  32.445   0.731
22969W        W75865   9.561  34.230   3.348
22970W        W75866  20.342  29.544   9.368
22971W        W75867   0.513  31.993   9.636
22972W        W75868   1.066  23.307   1.734
22973W        W75869  14.399  13.077   2.596
22974W        W75870  19.296  22.771   8.836
22975W        W75871  15.177  35.002   8.212
22976W        W75872  17.320   4.102   1.725
22977W        W75873   0.310  26.367   7.354
22978W        W75874   0.539   3.273  10.186
22979W        W75875  35.096  20.151   2.726
22980W        W75876  16.831   1.769   2.783
22981W        W75877  19.250  19.859   0.443
22982W        W75878  10.683  18.177   8.194
22983W        W75879   6.369   1.714   0.436
22984W        W75880  31.607  25.727   1.965
22985W        W75881  11.148  32.457   1.188
22986W        W75882  27.145  31.995   3.293
22987W        W75883  16.434   1.458   8.394
22988W        W75884  29.225  13.988   0.768
22989W        W75885  21.502  18.274   0.581
22990W        W75886  26.772  13.190  10.027
22991W        W75887  30.367  20.966   0.913
22992W        W75888  32.906  27.420   0.452
22993W        W75889  35.324   7.983   1.959
22994W        W75890  17.720   5.150   1.587
22995W        W75891  20.050  33.476   1.410
22996W        W75892  12.065  27.907   9.933
22997W        W75893   9.763  35.623   2.005
22998W        W75894  28.104  16.309   3.026
22999W        W75895   5.601  16.054   9.235
23000W        W75896   4.617  30.781   1.238
23001W        W75897  17.075  30.316   8.950
23002W        W75898   2.420  10.393   1.582
23003W        W75899  19.146   8.895   0.713
23004W        W75900  10.292  13.080   9.088
23005W        W75901  17.061  15.621   2.924
23006W        W75902  25.810  11.381   0.462
23007W        W75903  26.889  28.678   8.292
23008W        W75904   8.182  10.884   8.486
23009W        W75905  20.649  26.305   8.869
23010W        W75906  11.495   0.342   2.862
23011W        W75907   0.771  27.941   9.481
23012W        W75908  17.418  33.957  10.319
23013W        W75909  16.345  30.372   0.229
23014W        W75910  19.728   5.208   8.472
23015W        W75911  26.203  13.051   3.203
23016W        W75912  10.575  10.607   2.871
23017W        W75913  12.854   7.048   0.068
23018W        W75914  20.891  25.937   3.440
23019W        W75915  10.086  13.336   1.665
23020W        W75916   4.810  21.128   3.506
23021W        W75917  21.752   4.814   7.193
23022W        W75918  27.801   0.546   1.057
23023W        W75919  14.788  33.417   0.310
23024W        W75920  31.245   2.296   0.676
23025W        W75921   4.424  21.236   0.558
23026W        W75922   0.228  23.478   9.294
23027W        W75923  32.827  35.234   0.305
23028W        W75924  21.274  32.155   2.055
23029W        W75925  33.780  13.641  10.225
23030W        W75926  23.160  28.680   8.447
23031W        W75927  19.628   1.811   7.799
23032W        W75928  17.058  18.672   1.329
23033W        W75929  24.476  33.980   8.542
23034W        W75930   6.397  11.701  10.279
23035W        W75931  26.349  17.366   9.879
23036W        W75932  12.568  10.047   1.263
23037W        W75933   8.341  32.828   1.977
23038W        W75934  35.908   4.066   2.965
23039W        W75935   2.115   7.040   1.721
23040W        W75936  23.970  18.086   1.317
23041W        W75937  26.238  10.611   8.848
23042W        W75938   3.558  21.662   9.082
23043W        W75939  34.486   1.913   3.423
23044W        W75940  18.046  20.993   8.950
23045W        W75941  23.659  20.522   1.622
23046W        W75942   1.631   8.392   0.958
23047W        W75943   2.968  17.823   3.269
23048W        W75944  10.673  30.150   9.157
23049W        W75945  22.807  22.652   3.577
23050W        W75946  29.429  20.144   0.548
23051W        W75947  32.891   7.260   2.557
23052W        W75948   0.175  18.428   1.560
23053W        W75949  25.193   1.569  10.151
23054W        W75950  18.912   6.199   9.963
23055W        W75951   3.054   3.709   8.791
23056W        W75952  17.515  24.489   3.230
23057W        W75953  27.782  21.449   0.079
23058W        W75954   7.982  21.774   2.307
23059W        W75955  26.804  13.749   1.699
23060W        W75956  13.042  26.650   9.802
23061W        W75957  32.926   7.041   3.055
23062W        W75958   4.018   4.504   1.280
23063W        W75959   7.495   9.366   1.159
23064W        W75960   1.544   8.488   9.375
23065W        W75961   7.577   4.548   2.106
23066W        W75962   5.254  22.430   0.576
23067W        W75963   5.156  17.777   9.389
23068W        W75964  27.346  22.313   2.328
23069W        W75965  15.490  27.151   8.113
23070W        W75966  13.394   2.914   9.841
23071W        W75967   1.251  21.997   3.079
23072W        W75968   6.822   6.106   0.125
23073W        W75969   7.491  30.006   7.997
23074W        W75970  10.949  30.967   9.723
23075W        W75971  26.034   1.258   1.897
23076W        W75972  29.753  13.827   7.358
23077W        W75973  11.763  22.230   8.171
23078W        W75974   9.628   0.709   7.963
23079W        W75975   2.101  18.257   9.698
23080W        W75976  30.340   7.028   0.627
23081W        W75977  15.186  35.187   7.204
23082W        W75978  10.563  12.336   1.549
23083W        W75979  11.007  19.469   0.037
23084W        W75980  31.547  16.360   7.512
23085W        W75981   6.980  12.322   9.997
23086W        W75982  35.070  35.345   0.914
23087W        W75983   0.180  21.291   8.800
23088W        W75984  20.314  21.597   2.201
23089W        W75985   5.680  33.759   0.922
23090W        W75986  13.131  24.207   2.148
23091W        W75987   1.971  34.527   1.880
23092W        W75988  15.404   7.159   2.790
23093W        W75989  13.230  30.999   8.586
23094W        W75990  29.062  14.076   9.336
23095W        W75991   0.354   2.075   7.067
23096W        W75992  18.252  27.905   9.568
23097W        W75993   1.739  12.044   2.618
23098W        W75994  30.747  10.864   3.394
23099W        W75995   9.332  14.517   0.921
23100W        W75996   5.755  16.308   0.360
23101W        W75997  13.635  29.734   1.657
23102W        W75998  33.690  17.681   4.148
23103W        W75999  25.605  32.285   7.763
23104W        W76000   0.886   5.622   7.599
23105W        W76001  23.927   4.832   9.652
23106W        W76002  34.487   1.826   7.958
23107W        W76003  28.294  15.367   3.130
23108W        W76004  15.824  33.632   7.973
23109W        W76005  17.149   7.638   2.373
23110W        W76006  22.451  23.387   0.492
23111W        W76007  35.881  24.564   2.509
23112W        W76008  23.938   1.103   9.729
23113W        W76009  33.558  35.516   8.902
23114W        W76010  31.953  27.508   9.639
23115W        W76011  29.086  15.968   1.842
23116W        W76012  30.828  13.947   1.682
23117W        W76013  29.164  30.732   0.402
23118W        W76014  14.707  10.398   1.681
23119W        W76015  20.925   3.683   8.897
23120W        W76016  17.743  25.057   0.136
23121W        W76017   0.551  19.125   0.100
23122W        W76018   5.249   2.567   8.219
23123W        W76019   5.109  31.072   0.701
23124W        W76020  13.755  23.285   0.554
23125W        W76021  22.981  32.747   0.172
23126W        W76022  22.799  27.820   9.471
23127W        W76023  11.936  24.263   9.784
23128W        W76024  17.632  16.817   1.978
23129W        W76025   8.768  13.802   0.684
23130W        W76026  29.386   8.678   0.915
23131W        W76027  35.289   8.648  10.175
23132W        W76028  32.600  13.242  10.329
23133W        W76029  17.313  16.468   0.494
23134W        W76030  33.932   2.296  10.055
23135W        W76031   1.250  27.352   8.396
23136W        W76032  27.329  11.544   2.003
23137W        W76033  25.580  15.201   0.758
23138W        W76034  24.408  29.839   1.794
23139W        W76035  12.252  14.805   2.357
23140W        W76036  24.100  30.532   2.169
23141W        W76037  20.569  16.211   0.389
23142W        W76038  10.697   1.445   0.946
23143W        W76039  10.452  30.889   0.263
23144W        W76040  12.422   0.633   0.867
23145W        W76041  22.720  18.930   9.967
23146W        W76042  15.483  34.170   3.431
23147W        W76043  24.657   0.358   9.622
23148W        W76044  12.478   1.687  10.118
23149W        W76045  30.457  24.011   2.001
23150W        W76046  13.893  28.092   9.591
23151W        W76047  29.546   0.450   3.646
23152W        W76048  27.319   3.990   3.211
23153W        W76049   5.239  25.318   3.364
23154W        W76050   4.514   0.051   9.186
23155W        W76051  20.379  20.029   0.968
23156W        W76052   0.628  20.438   2.547
23157W        W76053  35.305   1.012   2.257
23158W        W76054   7.568  23.534   1.031
23159W        W76055  35.943   1.990   9.672
23160W        W76056  29.849  23.893   0.621
23161W        W76057  25.254  16.634   8.362
23162W        W76058  17.764   7.709   8.774
23163W        W76059  26.960  34.963   1.056
23164W        W76060   9.283  18.294   0.143
23165W        W76061   9.492  18.663   7.570
23166W        W76062   9.268  20.584   7.810
23167W        W76063  32.210   8.927   0.041
23168W        W76064   4.902  12.023   3.083
23169W        W76065  29.530  17.579   0.699
23170W        W76066  31.886  16.649   7.729
23171W        W76067   5.166  19.842   1.879
23172W        W76068  22.973  23.042   1.950
23173W        W76069   2.286  30.125   0.957
23174W        W76070  28.061   4.675   9.457
23175W        W76071  25.968  34.877   2.088
23176W        W76072  30.499  18.827   3.207
23177W        W76073  26.178  10.700   9.556
23178W        W76074  20.594  35.915   9.739
23179W        W76075  16.120   5.209   0.366
23180W        W76076   4.319  33.465   8.173
23181W        W76077  15.838  21.599   1.950
23182W        W76078   5.692  13.686   0.688
23183W        W76079   5.727  14.012   2.945
23184W        W76080   8.054  13.786  10.325
23185W        W76081  22.253  31.954   1.882
23186W        W76082  19.426  24.366   3.388
23187W        W76083  12.684   5.181   2.380
23188W        W76084  16.444  28.096   2.279
23189W        W76085   1.387  17.722   2.745
23190W        W76086   0.085  23.010   3.265
23191W        W76087  18.242   1.059   1.802
23192W        W76088  31.212  25.853   8.080
23193W        W76089  33.553  22.716   0.546
23194W        W76090  31.909  31.950   8.604
23195W        W76091  26.819  14.127   1.377
23196W        W76092  24.077   3.864   2.926
23197W        W76093  33.138  26.560   8.191
23198W        W76094  21.308  33.760   2.643
23199W        W76095   6.145  22.773   0.346
23200W        W76096   1.355   9.973   2.703
23201W        W76097  35.548  32.616   1.742
23202W        W76098   1.363  32.926   9.085
23203W        W76099  15.538   9.165   9.889
23204W        W76100  31.421  34.368   8.715
23205W        W76101  24.657  35.130   3.279
23206W        W76102  18.009  21.821   9.430
23207W        W76103   8.061  19.194   7.888
23208W        W76104  21.779  31.927   1.955
23209W        W76105  28.291  13.311   9.271
23210W        W76106  29.916  25.623   8.079
23211W        W76107   7.976  34.768   1.019
23212W        W76108  32.669  21.679   1.872
23213W        W76109  12.041  29.522   0.197
23214W        W76110  21.553  20.580   8.110
23215W        W76111  21.868  21.640   8.342
23216W        W76112   6.792  31.770   2.778
23217W        W76113  17.970  15.995   0.040
23218W        W76114   7.174  11.199   0.868
23219W        W76115   2.736  23.566   3.925
23220W        W76116  22.385   3.315  10.284
23221W        W76117  23.448  34.353   0.807
23222W        W76118  19.709   5.766   8.720
23223W        W76119   3.698   4.528   1.661
23224W        W76120  15.957  32.189   3.017
23225W        W76121   6.571  25.632   1.569
23226W        W76122  18.951   6.391   0.552
23227W        W76123  31.104  30.780   2.288
23228W        W76124  25.188  12.992   2.452
23229W        W76125  33.216  27.622   9.112
23230W        W76126  25.834  26.045   1.956
23231W        W76127  23.809   6.464  10.174
23232W        W76128  19.654  10.038   1.640
23233W        W76129  22.673  23.707   2.972
23234W        W76130  10.846  24.357   0.692
23235W        W76131  29.418  26.766  10.215
23236W        W76132  26.585  28.966   2.031
23237W        W76133  26.494  18.618  10.062
23238W        W76134   8.223   6.347   8.057
23239W        W76135  14.283   5.429   0.223
23240W        W76136  21.488  17.104   1.803
23241W        W76137  13.471  10.031   8.632
23242W        W76138  23.640   2.957   0.434
23243W        W76139  24.624  11.863   8.208
23244W        W76140  34.867   4.005   1.732
23245W        W76141  30.250  19.593   8.459
23246W        W76142   3.924   0.919   8.865
23247W        W76143  25.028  33.065   3.115
23248W        W76144  18.722  22.390  10.128
23249W        W76145  29.985  13.519   3.426
23250W        W76146  12.951  29.846   2.809
23251W        W76147  25.320  28.980   9.839
23252W        W76148  28.982  32.657   9.064
23253W        W76149  22.075  15.730   3.179
23254W        W76150   4.346   8.174   1.803
23255W        W76151  33.795   5.498   7.201
23256W        W76152  26.767  28.808   9.239
23257W        W76153   8.435   2.287   2.034
23258W        W76154  34.154  23.853   9.954
23259W        W76155  19.976  21.937   9.158
23260W        W76156  23.231  26.179   7.928
23261W        W76157  34.719   7.104   0.432
23262W        W76158   3.510  35.542   8.134
23263W        W76159  28.338  31.716   9.578
23264W        W76160  21.594  29.989   0.966
23265W        W76161  20.271   8.320   1.362
23266W        W76162   6.651  10.852   9.640
23267W        W76163  34.221  11.308   9.750
23268W        W76164   4.544  11.790   0.440
23269W        W76165  21.715  31.316   3.413
23270W        W76166  28.993  11.796   1.656
23271W        W76167  22.049  27.556   2.320
23272W        W76168  19.752  32.255   3.924
23273W        W76169  25.451  30.398   1.318
23274W        W76170  17.966  32.672   9.568
23275W        W76171   7.607   7.782   7.761
23276W        W76172   8.865  29.509   9.400
23277W        W76173  17.456  33.197   9.214
23278W        W76174   3.191  26.014   3.260
23279W        W76175  20.722  31.975   8.226
23280W        W76176  34.967   1.062   8.112
23281W        W76177  27.631  11.677   2.443
23282W        W76178  19.338  11.479  10.324
23283W        W76179  34.023   1.051   3.524
23284W        W76180   5.085  16.960   9.683
23285W        W76181  13.210  18.098   7.749
23286W        W76182  27.725   4.543   9.803
23287W        W76183  11.078   4.090   8.646
23288W        W76184   7.763   6.958   6.860
23289W        W76185  16.720   8.298   0.672
23290W        W76186   6.139  11.107   8.779
23291W        W76187  28.804   2.916   9.031
23292W        W76188  15.824  27.995  10.102
23293W        W76189  22.592  20.073   0.822
23294W        W76190  22.900  13.879   8.295
23295W        W76191  34.314   5.013   2.857
23296W        W76192  20.221  11.010  10.166
23297W        W76193  11.675  35.611   2.406
23298W        W76194  12.516  11.385   8.288
23299W        W76195  10.960  20.732   8.058
23300W        W76196   4.807   7.959   4.009
23301W        W76197  33.582  29.945   7.883
23302W        W76198   5.517  15.663   2.214
23303W        W76199  25.056  19.202  10.020
23304W        W76200   6.276  13.126   9.347
23305W        W76201  23.714  30.262   8.578
23306W        W76202  25.119   8.683   3.415
23307W        W76203  30.285  11.358   0.553
23308W        W76204  27.289  25.495   2.164
23309W        W76205  28.059  31.805   0.256
23310W        W76206   9.019   0.805   0.521
23311W        W76207  34.458  29.650   2.792
23312W        W76208  27.902   2.787   3.857
23313W        W76209  18.917   0.737   0.554
23314W        W76210  31.499  12.777   7.218
23315W        W76211   0.200   2.514   0.022
23316W        W76212  10.092  23.030   9.968
23317W        W76213   7.037   1.212   3.510
23318W        W76214  15.309  20.558   1.451
23319W        W76215  21.245  14.714   7.927
23320W        W76216  30.406  31.549   2.797
23321W        W76217   2.857  20.859   2.394
23322W        W76218   9.290  14.145   8.162
23323W        W76219   7.081  32.451   1.274
23324W        W76220  22.448  29.372   7.715
23325W        W76221  30.229  10.879   9.707
23326W        W76222  12.749  18.795   2.089
23327W        W76223  14.041  18.267   2.568
23328W        W76224  35.641  11.758  10.214
23329W        W76225   3.742  20.877   2.612
23330W        W76226  34.991   7.491   9.585
23331W        W76227  34.890   4.847   2.098
23332W        W76228   1.850  30.138   2.810
23333W        W76229  16.534  26.157   1.346
23334W        W76230   8.357  27.292   1.458
23335W        W76231   2.362  33.560   8.995
23336W        W76232  33.524  20.428   7.914
23337W        W76233  29.700  18.398   8.010
23338W        W76234   6.526   3.209   7.490
23339W        W76235  10.707  12.882   9.404
23340W        W76236  34.357  26.834   8.499
23341W        W76237  24.436   7.041   7.638
23342W        W76238  29.496  14.129   2.931
23343W        W76239   0.310  34.915   2.265
23344W        W76240  34.727   3.884   9.429
23345W        W76241  13.780  32.056   0.839
23346W        W76242  15.165  19.155   8.235
23347W        W76243  26.856  34.497   0.860
23348W        W76244   0.334  26.575   2.174
23349W        W76245  26.421  10.303   2.132
23350W        W76246   7.250   7.964   1.053
23351W        W76247  35.642  33.304   1.185
23352W        W76248  17.739  17.821   9.273
23353W        W76249   8.656  17.416   9.839
23354W        W76250  24.058  21.150   0.769
23355W        W76251   3.481  32.507   0.670
23356W        W76252   0.260   0.266   2.024
23357W        W76253  25.745  12.774   1.504
23358W        W76254  26.088  17.086   9.182
23359W        W76255  16.007   1.556   8.571
23360W        W76256  16.897  34.279   0.951
23361W        W76257   6.378  16.566   1.196
23362W        W76258   3.090  19.085   8.694
23363W        W76259  24.653   8.975   0.191
23364W        W76260  17.762  25.044   1.676
23365W        W76261   3.046  10.612   0.422
23366W        W76262  16.979  15.770   9.821
23367W        W76263  33.685   5.850   1.778
23368W        W76264   2.922  19.700   8.048
23369W        W76265   7.438  15.735   0.592
23370W        W76266  19.658  34.134   7.699
23371W        W76267  29.705  14.035   9.935
23372W        W76268  23.249   7.539   1.131
23373W        W76269  27.368   1.353   2.258
23374W        W76270   5.881  23.453   8.172
23375W        W76271  33.987   0.496   2.390
23376W        W76272  21.220  11.808   9.332
23377W        W76273  10.135  21.616   1.588
23378W        W76274  10.033  28.205   7.993
23379W        W76275  23.872  32.394   9.770
23380W        W76276  28.542  13.780   0.773
23381W        W76277  20.096   5.273  10.050
23382W        W76278  21.563   5.937   1.665
23383W        W76279  19.504  30.698   9.876
23384W        W76280   7.306  25.923   0.285
23385W        W76281  23.295  14.351   1.919
23386W        W76282  16.062  16.506   0.091
23387W        W76283  21.089  27.684   7.990
23388W        W76284  13.425  19.772   2.950
23389W        W76285   7.311  21.722   0.104
23390W        W76286  17.018  35.433   0.108
23391W        W76287  15.801  18.320   9.332
23392W        W76288  26.673  25.983   0.602
23393W        W76289  12.374   3.510   8.516
23394W        W76290  20.721  19.445   3.074
23395W        W76291  20.518  10.346   8.986
23396W        W76292  28.532   3.272   1.520
23397W        W76293   0.956  11.284   2.864
23398W        W76294   1.524  11.853   3.078
23399W        W76295   8.821  27.045   1.747
23400W        W76296  34.349  10.167   0.386
23401W        W76297   2.201  11.009   1.064
23402W        W76298  35.881   3.086  10.337
23403W        W76299  27.874   9.998  10.256
23404W        W76300  11.541   1.809   0.657
23405W        W76301  21.735  25.868   1.703
23406W        W76302   9.318   2.143   7.388
23407W        W76303  10.158  20.002   9.761
23408W        W76304   8.672   5.677   0.314
23409W        W76305   3.928   7.905   9.246
23410W        W76306   0.662  31.307   7.705
23411W        W76307  10.982  15.899   9.989
23412W        W76308  12.090  33.711   8.251
23413W        W76309  33.663  28.008   1.506
23414W        W76310   2.314  16.732  10.191
23415W        W76311   7.753  21.255   1.154
23416W        W76312   7.136  16.852   1.733
23417W        W76313  14.557  20.057   9.782
23418W        W76314  14.228  23.761   7.418
23419W        W76315  33.140  30.084   8.837
23420W        W76316  20.389   5.306   9.612
23421W        W76317   6.587   4.880   2.208
23422W        W76318  35.226  13.614   8.770
23423W        W76319   6.918  30.070   9.980
23424W        W76320   4.080  13.137   0.718
23425W        W76321  14.728   5.351   9.740
23426W        W76322  18.254  19.668   2.243
23427W        W76323  13.196  30.111   2.384
23428W        W76324  15.046  33.294   8.347
23429W        W76325  15.679  32.533   1.255
23430W        W76326   4.709   2.417  10.170
23431W        W76327  14.688  10.887   1.925
23432W        W76328   2.745  25.522   2.668
23433W        W76329   2.831  11.560   2.011
23434W        W76330  13.538   3.881   1.226
23435W        W76331  23.880  17.083   1.329
23436W        W76332   7.752  20.852   9.245
23437W        W76333  35.113  29.347   9.194
23438W        W76334  29.777   5.495   8.637
23439W        W76335  21.941   1.086  10.050
23440W        W76336  11.068  23.261   2.078
23441W        W76337  35.461  25.586   1.607
23442W        W76338  30.507  19.532   9.013
23443W        W76339   5.425  26.148   3.245
23444W        W76340  27.153   4.849   8.701
23445W        W76341  29.132  22.903   8.510
23446W        W76342   0.387  32.775   8.645
23447W        W76343   8.855  31.770   9.952
23448W        W76344   9.921  34.201   1.039
23449W        W76345  26.395  20.357  10.265
23450W        W76346   9.136  19.170   9.422
23451W        W76347   6.602  34.603   8.118
23452W        W76348  14.588  29.172   1.719
23453W        W76349  25.604   6.349   3.415
23454W        W76350  30.600  30.338   8.285
23455W        W76351  33.957  20.845   2.815
23456W        W76352  21.506  24.632   1.493
23457W        W76353  23.347  10.191   7.409
23458W        W76354  22.683  28.859   8.580
23459W        W76355  35.881  21.084   9.869
23460W        W76356  18.054  28.156   1.071
23461W        W76357  14.768  20.509   7.983
23462W        W76358  16.939  25.659   7.248
23463W        W76359  31.803  31.146   0.287
23464W        W76360  18.970  16.498   1.452
23465W        W76361   7.244  14.622   1.557
23466W        W76362  23.032   4.321   2.632
23467W        W76363   6.560   0.326   8.886
23468W        W76364  13.081  25.338   8.013
23469W        W76365   5.606  24.527   2.987
23470W        W76366  18.241  28.913   9.863
23471W        W76367   1.828  29.552   7.576
23472W        W76368  21.594   7.266   3.462
23473W        W76369  15.955   8.799   1.679
23474W        W76370  30.143   2.456   2.693
23475W        W76371   6.024   0.268   1.408
23476W        W76372  29.562   1.348   1.861
23477W        W76373  31.867   0.269   9.388
23478W        W76374  12.222  21.714   0.865
23479W        W76375  24.059  15.921   0.514
23480W        W76376  35.053  21.809   0.960
23481W        W76377  33.636   6.143   2.823
23482W        W76378  17.795   7.623   9.751
23483W        W76379  27.631  11.763   8.066
23484W        W76380  35.192  20.100   9.244
23485W        W76381  17.327  25.010   1.486
23486W        W76382   4.520  13.437   8.791
23487W        W76383   4.693  29.426   7.550
23488W        W76384  12.313  15.538   9.161
23489W        W76385  29.690  34.413   8.986
23490W        W76386  16.197   8.545   8.626
23491W        W76387  24.399  28.017   1.301
23492W        W76388  33.562   7.468   9.339
23493W        W76389  17.575   9.479   8.156
23494W        W76390  35.657  18.311   0.287
23495W        W76391   6.563  33.367   3.194
23496W        W76392  31.726  22.212   3.447
23497W        W76393  22.923   0.902   0.595
23498W        W76394  22.773  27.887  10.046
23499W        W76395  32.658  31.246   0.763
23500W        W76396  13.779   2.106   8.959
23501W        W76397   7.234   1.125   7.936
23502W        W76398  30.279  22.627   0.035
23503W        W76399  11.791   8.243   1.355
23504W        W76400  18.755  10.332   1.301
23505W        W76401  16.073  22.548   8.902
23506W        W76402   7.240  28.891   0.862
23507W        W76403  10.810  27.223   8.920
23508W        W76404  12.461   8.574   1.149
23509W        W76405  32.399  22.385   8.667
23510W        W76406   9.195  13.497   2.746
23511W        W76407  15.983  28.331   1.507
23512W        W76408  21.243  31.355  10.146
23513W        W76409  16.402  12.258   0.746
23514W        W76410   1.726  21.648   1.298
23515W        W76411  13.225  18.788   3.133
23516W        W76412  19.698   3.692  10.292
23517W        W76413   0.243   4.766   8.628
23518W        W76414  30.135  24.378   1.315
23519W        W76415  26.114  14.310  10.238
23520W        W76416  17.050  27.540   9.215
23521W        W76417  23.394   9.341   2.936
23522W        W76418  19.518   2.708   9.709
23523W        W76419  13.363  22.549   7.781
23524W        W76420  31.324  19.985   7.162
23525W        W76421  35.059   8.685   1.319
23526W        W76422   6.564  18.786   1.542
23527W        W76423  23.903  20.716   9.468
23528W        W76424  27.707  18.563   1.340
23529W        W76425  10.723  35.216   8.037
23530W        W76426  13.129  21.720   2.030
23531W        W76427  22.885  34.923   9.800
23532W        W76428   9.012  26.383   7.480
23533W        W76429  10.684  15.316   9.231
23534W        W76430  12.501  35.310   1.038
23535W        W76431  11.125   8.019   0.960
23536W        W76432   5.217  15.023   8.608
23537W        W76433  27.395  22.971   7.644
23538W        W76434   8.127  32.191   9.259
23539W        W76435   2.827  12.116   8.523
23540W        W76436   9.075  35.123   8.136
23541W        W76437  32.940  19.038   1.847
23542W        W76438  29.032  22.547   9.576
23543W        W76439  23.476  25.521  10.185
23544W        W76440   6.678  29.779   0.109
23545W        W76441  10.453  25.732   7.543
23546W        W76442  16.332   8.309   0.332
23547W        W76443  27.331  33.520   8.824
23548W        W76444  34.415   1.970   8.426
23549W        W76445  12.051  18.140   8.727
23550W        W76446  28.534  21.918   0.124
23551W        W76447   2.712  13.480   8.027
23552W        W76448  21.696  27.370  10.047
23553W        W76449   5.145   8.841   1.849
23554W        W76450  20.509  19.862   2.108
23555W        W76451   9.741  19.524   0.520
23556W        W76452   7.895  26.526   8.998
23557W        W76453  34.104   5.661   3.665
23558W        W76454   7.099  26.135   8.650
23559W        W76455  16.220   6.139   0.965
23560W        W76456   5.232  21.179   1.045
23561W        W76457   5.240  34.542   1.207
23562W        W76458  32.234  28.932   2.327
23563W        W76459  16.073  23.776  10.304
23564W        W76460   5.955  34.925   8.034
23565W        W76461  19.444   0.888   8.825
23566W        W76462  25.436   3.526   3.157
23567W        W76463  24.534  27.828  10.118
23568W        W76464  15.504  32.388   8.326
23569W        W76465   4.452  24.224   8.190
23570W        W76466  18.918  17.335   1.977
23571W        W76467  17.312  35.475   7.943
23572W        W76468  18.257  26.920   2.818
23573W        W76469  12.958  29.188   8.638
23574W        W76470  26.222   5.974   0.891
23575W        W76471  26.839  23.321   9.674
23576W        W76472   8.824  31.481   0.952
23577W        W76473  20.739  20.833   9.686
23578W        W76474   5.529  29.652   7.951
23579W        W76475   5.170  34.584   2.140
23580W        W76476   2.396   1.570   9.887
23581W        W76477  28.593  16.460   3.003
23582W        W76478   2.831   5.369   2.432
23583W        W76479  18.801  19.148   9.148
23584W        W76480  23.005   4.567   8.413
23585W        W76481  21.676  17.510   1.534
23586W        W76482  17.046  32.654   2.367
23587W        W76483  21.494  13.700   1.556
23588W        W76484   2.832  14.063   1.595
23589W        W76485  21.870  16.429   1.573
23590W        W76486  28.220  12.285   2.209
23591W        W76487  27.736  24.035   8.346
23592W        W76488   3.492  25.886   7.962
23593W        W76489   1.707  31.589   1.414
23594W        W76490  21.284  30.926   0.640
23595W        W76491  32.051  20.342   1.498
23596W        W76492  22.931  34.693   1.904
23597W        W76493  27.939  33.929   0.993
23598W        W76494  32.931  32.367  10.277
23599W        W76495  17.275   1.318   8.224
23600W        W76496  25.851  15.066   2.709
23601W        W76497  23.553  13.112   8.563
23602W        W76498   9.801  28.826   6.977
23603W        W76499  30.201   1.754   8.028
23604W        W76500  19.493  31.914   8.232
23605W        W76501  33.215  15.335   9.328
23606W        W76502  19.211   1.413   9.677
23607W        W76503  22.128   8.358   0.693
23608W        W76504  35.998  30.096   0.507
23609W        W76505  34.646  25.192   1.693
23610W        W76506   0.894   9.839   3.483
23611W        W76507   0.870   7.881   3.345
23612W        W76508  30.794   7.209   9.522
23613W        W76509   0.309  22.178   3.443
23614W        W76510  29.633  26.992   8.309
23615W        W76511  15.956  12.413  10.281
23616W        W76512  13.335  27.502   0.030
23617W        W76513   0.863   4.346   0.323
23618W        W76514   5.173  17.674   8.298
23619W        W76515  13.074   1.100   1.510
23620W        W76516   2.475   4.121   0.057
23621W        W76517  10.775  11.063   2.507
23622W        W76518   3.096  33.995  10.338
23623W        W76519   1.412  30.218   8.344
23624W        W76520   5.404  10.714   2.225
23625W        W76521  26.714  32.940   8.240
23626W        W76522   3.903  35.891   0.817
23627W        W76523   9.433  33.379   9.816
23628W        W76524  22.242   7.570   8.840
23629W        W76525  12.013   3.438   9.435
23630W        W76526  23.704  12.013   8.224
23631W        W76527  10.218  36.008   2.628
23632W        W76528  15.474  19.266   8.628
23633W        W76529  16.341   0.922   3.208
23634W        W76530   6.980  23.578   9.009
23635W        W76531  24.983  20.431   9.427
23636W        W76532   8.059  31.016   1.122
23637W        W76533  34.611  11.260  10.119
23638W        W76534  34.726  22.735   3.258
23639W        W76535  23.835  17.762   0.652
23640W        W76536  34.219   5.855   9.173
23641W        W76537  30.496  25.759   8.867
23642W        W76538   1.755  24.492   8.776
23643W        W76539   9.654  33.474   0.362
23644W        W76540  21.906  13.963   9.356
23645W        W76541   6.425  23.672   2.270
23646W        W76542  31.450  34.236   2.252
23647W        W76543  32.829  17.779   0.949
23648W        W76544   8.900  21.515   9.881
23649W        W76545  19.688  30.863   9.195
23650W        W76546  20.867  18.636   1.197
23651W        W76547   6.651  13.486   0.408
23652W        W76548  21.782  16.198   0.693
23653W        W76549  31.771  28.558   9.335
23654W        W76550  24.184  19.944   8.658
23655W        W76551  33.171  17.538   8.511
23656W        W76552   2.251  31.112   9.159
23657W        W76553   8.744  22.735   9.751
23658W        W76554  29.338  18.631   1.135
23659W        W76555  33.834  29.412   2.859
23660W        W76556  29.824  29.894   0.249
23661W        W76557  27.306  18.590   0.511
23662W        W76558   1.530   0.604   6.994
23663W        W76559  15.289  17.650   8.200
23664W        W76560  25.196  15.445   7.922
23665W        W76561  13.542  14.825   3.252
23666W        W76562   8.083   6.285   0.935
23667W        W76563  14.935  27.071   7.134
23668W        W76564  14.071   7.112   0.210
23669W        W76565  13.813  15.770   8.860
23670W        W76566  18.244  26.317   1.281
23671W        W76567  18.617  26.693   9.194
23672W        W76568  22.861  26.517   3.301
23673W        W76569  15.380  17.447   2.324
23674W        W76570  23.415   1.238   0.556
23675W        W76571  32.280  24.753  10.272
23676W        W76572  16.660   4.489   3.585
23677W        W76573  27.765  20.876   7.748
23678W        W76574   9.520  35.193   2.053
23679W        W76575  29.697   6.739   7.667
23680W        W76576  31.108  31.472   9.424
23681W        W76577  14.248  18.598   2.102
23682W        W76578  12.991  15.688  10.166
23683W        W76579   3.999  15.261   1.197
23684W        W76580  35.950  31.624   3.572
23685W        W76581  27.217  24.819   1.448
23686W        W76582   7.254  24.829   8.172
23687W        W76583  34.975  27.137   9.043
23688W        W76584  29.350  25.486   0.333
23689W        W76585  18.373  25.639   8.444
23690W        W76586  11.977  14.949   9.864
23691W        W76587   1.852  22.781   2.378
23692W        W76588  26.969   4.180   2.138
23693W        W76589  12.069   6.538   0.092
23694W        W76590  28.392  17.290   2.897
23695W        W76591   2.740   7.781   8.919
23696W        W76592  21.593  28.106   1.622
23697W        W76593  19.403  32.690   9.634
23698W        W76594  21.785  28.278   9.138
23699W        W76595  31.055   9.163   0.679
23700W        W76596   8.848  14.330   8.069
23701W        W76597   0.330  26.583   3.281
23702W        W76598  15.170  34.607   1.482
23703W        W76599  29.891  22.016   7.696
23704W        W76600  17.448  11.091   2.958
23705W        W76601  17.110  28.181   0.575
23706W        W76602  31.627  35.697   8.804
23707W        W76603  14.313  23.899   1.288
23708W        W76604  26.227  31.851   2.815
23709W        W76605   6.723  16.902   0.898
23710W        W76606   2.428  11.337   2.226
23711W        W76607   5.622  30.977   8.609
23712W        W76608  10.711   8.278   1.529
23713W        W76609  15.540   9.665   3.598
23714W        W76610  18.279   9.212   8.650
23715W        W76611  13.178  25.368  10.268
23716W        W76612  32.271   6.165   8.239
23717W        W76613  35.867  31.664   8.841
23718W        W76614  20.532  14.871   8.552
23719W        W76615  16.151  17.142   3.602
23720W        W76616  20.338   3.767   0.032
23721W        W76617   5.904  22.041   2.858
23722W        W76618  25.537   2.552   9.208
23723W        W76619  28.048  20.161   2.351
23724W        W76620  29.153   6.159   7.031
23725W        W76621  24.514  21.278   0.804
23726W        W76622  12.490   1.643   8.474
23727W        W76623   4.745  11.654   0.010
23728W        W76624   9.621   6.893   0.577
23729W        W76625  27.107  15.083   1.051
23730W        W76626   9.886  15.358   9.164
23731W        W76627  13.342  20.588   9.269
23732W        W76628   5.976  23.208   7.404
23733W        W76629  27.317  26.395   2.519
23734W        W76630  28.670   9.062   2.543
23735W        W76631   7.482  19.950   8.281
23736W        W76632  21.669  13.062   0.002
23737W        W76633  16.496  33.326   1.803
23738W        W76634  11.261   6.059   0.415
23739W        W76635  29.003   4.635   2.673
23740W        W76636  28.589   0.715   0.520
23741W        W76637  13.523  31.676   9.527
23742W        W76638   3.273  11.769   1.754
23743W        W76639  32.106  29.128   3.090
23744W        W76640  15.831  33.621   8.973
23745W        W76641   6.955   7.209   9.432
23746W        W76642  36.008  17.707   9.925
23747W        W76643  31.626  11.035   0.337
23748W        W76644  23.843  26.098   1.529
23749W        W76645  10.145  21.921   8.129
23750W        W76646   4.532  23.020   3.632
23751W        W76647   4.067  23.192   7.840
23752W        W76648  15.429  34.389   0.945
23753W        W76649   8.037  22.150   1.138
23754W        W76650  24.710  23.851   0.215
23755W        W76651  31.329  14.191   0.304
23756W        W76652  13.071  11.269   9.957
23757W        W76653  11.727  16.586   1.551
23758W        W76654  25.017  29.782   0.583
23759W        W76655  33.304  28.022   1.871
23760W        W76656  12.715   1.241   7.328
23761W        W76657   1.806  19.131   1.464
23762W        W76658  18.448   9.727  10.130
23763W        W76659  29.767  22.180   9.150
23764W        W76660  26.839  24.946   9.433
23765W        W76661   4.891  13.039   9.545
23766W        W76662  13.828  12.889   1.506
23767W        W76663  23.164  13.453   2.096
23768W        W76664  29.345   3.019  10.165
23769W        W76665  25.235  22.994   1.525
23770W        W76666  12.562  24.506   9.873
23771W        W76667  16.904  23.329   1.246
23772W        W76668  31.075   1.944   8.377
23773W        W76669  26.268   0.990   3.682
23774W        W76670   8.550   2.472   9.393
23775W        W76671  26.922   8.500   8.708
23776W        W76672  30.003  21.546   9.631
23777W        W76673  26.818   4.018  10.338
23778W        W76674  13.711   6.641   3.630
23779W        W76675  22.471  12.709   9.201
23780W        W76676  35.908   7.411   9.374
23781W        W76677  23.566  24.999   0.844
23782W        W76678   1.396   8.926   0.942
23783W        W76679   8.207   6.087   9.347
23784W        W76680  10.004  15.640   0.781
23785W        W76681  12.729   9.322   8.942
23786W        W76682   5.965  16.895   1.208
23787W        W76683   8.860   3.682  10.185
23788W        W76684   7.439  10.843   1.030
23789W        W76685  26.254  34.996   2.445
23790W        W76686   8.733  25.150   0.488
23791W        W76687   4.657  19.434   3.183
23792W        W76688   0.559  22.588   9.085
23793W        W76689  21.908  12.533   2.104
23794W        W76690  18.284  25.282   0.097
23795W        W76691   4.251  18.882   6.750
23796W        W76692   7.477  23.910   2.399
23797W        W76693  15.515  16.845   3.044
23798W        W76694  21.706  18.310   9.994
23799W        W76695   7.518  17.267   8.484
23800W        W76696   5.772  18.477   7.354
23801W        W76697  25.892  19.191   7.746
23802W        W76698  34.303  25.543   9.572
23803W        W76699  35.553  28.720   9.707
23804W        W76700  28.043   9.094   2.778
23805W        W76701  35.731  27.079   3.450
23806W        W76702  14.391  13.991   2.152
23807W        W76703  28.710  33.987   2.419
23808W        W76704   7.385  30.337   9.818
23809W        W76705  23.394   3.622   9.414
23810W        W76706  24.658  25.010   0.845
23811W        W76707   8.523  18.779   7.795
23812W        W76708  31.128   9.023  10.011
23813W        W76709  30.345  17.280  10.245
23814W        W76710   0.129  21.102   9.336
23815W        W76711  35.972  29.863   1.748
23816W        W76712  11.892  23.383   7.102
23817W        W76713  13.868  10.425   2.809
23818W        W76714   6.027   9.099   1.487
23819W        W76715  28.523  23.673  10.075
23820W        W76716   7.327   4.706  10.053
23821W        W76717   4.024   2.411   7.980
23822W        W76718   7.738  22.990   8.848
23823W        W76719  15.483   5.063   9.816
23824W        W76720   9.475   2.952  10.108
23825W        W76721  13.178  25.617   0.958
23826W        W76722   9.782  33.796   9.794
23827W        W76723  23.775  10.943   3.457
23828W        W76724  21.440  28.109   9.470
23829W        W76725  28.441  34.343   6.785
23830W        W76726  16.939   4.051   3.313
23831W        W76727  33.096  25.900   0.979
23832W        W76728  19.041  18.869   3.264
23833W        W76729   2.752  11.204   9.640
23834W        W76730  11.227  24.717   9.491
23835W        W76731  19.144  20.044   3.795
23836W        W76732   2.031   8.093   1.108
23837W        W76733  20.139   0.161   0.324
23838W        W76734  10.453  22.056   2.611
23839W        W76735  14.588  21.678   8.041
23840W        W76736  17.061   1.946   1.434
23841W        W76737   9.945  26.950   2.875
23842W        W76738  25.005  21.643   2.925
23843W        W76739  19.301  20.983   2.668
23844W        W76740  29.630  22.836   2.133
23845W        W76741  26.792  19.056   2.323
23846W        W76742  30.961  21.585   2.467
23847W        W76743  16.298   3.059   2.347
23848W        W76744  22.529  20.426   2.942
23849W        W76745  19.662  12.619   0.121
23850W        W76746   4.484  17.588   1.987
23851W        W76747  18.982  16.499   2.915
23852W        W76748  20.606  31.916   2.255
23853W        W76749   0.948  16.684  10.023
23854W        W76750  27.364  16.094   9.422
23855W        W76751  16.148  15.734   8.738
23856W        W76752  32.112  27.192   8.318
23857W        W76753   6.348  21.955   9.565
23858W        W76754  13.670  13.641   0.242
23859W        W76755  25.846  21.038   9.176
23860W        W76756  24.705  26.959   8.585
23861W        W76757  11.370   1.655   2.828
23862W        W76758  28.982  24.550   2.913
23863W        W76759  28.273  25.399   1.875
23864W        W76760   3.385  18.926  10.125
23865W        W76761  24.368  18.005   0.507
23866W        W76762  29.166  12.385   9.492
23867W        W76763  32.541  11.169   9.985
23868W        W76764  10.824  28.664   1.595
23869W        W76765  23.400   3.776   0.157
23870W        W76766   1.444  12.001   0.831
23871W        W76767  14.427   9.951   1.180
23872W        W76768   5.996   2.560   0.516
23873W        W76769  18.883  33.421   2.441
23874W        W76770  20.075   8.031   1.982
23875W        W76771  15.759  19.639   1.187
23876W        W76772   0.389  29.158   9.728
23877W        W76773  15.265  33.397   9.236
23878W        W76774  14.700  29.576   0.602
23879W        W76775  26.472  19.724   1.146
23880W        W76776  26.463  32.048   1.805
23881W        W76777   2.622  35.707   1.623
23882W        W76778  30.763   7.725   9.792
23883W        W76779  20.521  30.548   1.229
23884W        W76780  29.115  22.643   2.007
23885W        W76781  19.350  33.332   3.196
23886W        W76782  16.682  28.193   0.267
23887W        W76783   7.116  13.071   9.031
23888W        W76784  27.159  35.034  10.309
23889W        W76785  28.714   3.008   9.503
23890W        W76786   0.023  28.981   2.605
23891W        W76787   3.500   1.689   8.380
23892W        W76788  12.619  20.807   0.606
23893W        W76789  27.648  27.729   2.586
23894W        W76790  26.505  23.582  10.021
23895W        W76791   1.067  10.018   2.187
23896W        W76792   6.347  28.435   1.613
23897W        W76793  31.299  17.516   0.532
23898W        W76794  27.140  20.178   9.336
23899W        W76795  32.557  19.954   9.414
23900W        W76796  35.862  24.745   0.669
23901W        W76797  26.861  12.100   1.627
23902W        W76798  29.222  15.782   2.741
23903W        W76799  22.544  12.486   2.861
23904W        W76800  11.096  26.605   1.140
23905W        W76801  10.317  32.274  10.232
23906W        W76802  31.909  34.855   8.153
23907W        W76803  19.342   3.745   2.427
23908W        W76804  23.252  15.289   8.562
23909W        W76805  27.189  28.521   9.601
23910W        W76806   5.850  11.493   9.081
23911W        W76807   0.245  28.173   1.605
23912W        W76808  26.170   1.250   8.513
23913W        W76809  11.918   7.775   2.578
23914W        W76810  16.773   8.562   8.709
23915W        W76811  20.552  25.410   9.010
23916W        W76812  23.050  18.085   1.546
23917W        W76813  24.975   6.134   9.966
23918W        W76814   6.180  27.435   0.572
23919W        W76815  30.568  13.348   9.582
23920W        W76816  23.907   4.329   3.113
23921W        W76817  16.992  12.046   9.758
23922W        W76818   8.330  31.648  10.115
23923W        W76819  19.398   2.643  10.209
23924W        W76820  30.379   8.574   8.977
23925W        W76821  28.207  12.118   3.705
23926W        W76822  14.317  27.341   0.182
23927W        W76823  29.386  14.003   7.716
23928W        W76824  10.878  17.174   2.340
23929W        W76825  32.851  21.237   3.588
23930W        W76826  16.271  24.724   9.889
23931W        W76827  11.101  34.330   8.457
23932W        W76828  28.563  19.256   8.972
23933W        W76829   6.270   8.382   0.400
23934W        W76830   6.170  28.322   9.454
23935W        W76831  19.446  27.541   1.414
23936W        W76832  13.521   5.165   8.875
23937W        W76833   0.290   5.721   2.912
23938W        W76834  17.495  32.923   1.047
23939W        W76835  11.528  23.913   0.307
23940W        W76836  32.651  10.117   6.855
23941W        W76837  33.722   1.218   9.918
23942W        W76838  20.135  32.482   9.322
23943W        W76839  26.112  14.010   8.638
23944W        W76840  23.519  19.499   8.313
23945W        W76841   8.544  18.420   1.574
23946W        W76842   6.551   6.546   7.133
23947W        W76843  24.889  17.393   1.800
23948W        W76844  24.096  20.837   8.704
23949W        W76845  27.634  27.051   9.255
23950W        W76846  19.526  29.873   3.841
23951W        W76847  31.443  13.475  10.308
23952W        W76848   5.752  34.264   8.855
23953W        W76849  27.103  24.617   6.984
23954W        W76850  23.682  23.950   2.240
23955W        W76851   0.445   3.496   9.147
23956W        W76852  15.518   9.061   1.626
23957W        W76853  14.156  34.429   9.081
23958W        W76854  26.839  11.073   1.517
23959W        W76855  10.066  35.967   3.195
23960W        W76856  13.914  19.482   2.003
23961W        W76857  29.078  29.352   9.078
23962W        W76858  12.650  33.648   8.135
23963W        W76859  32.259  12.831   2.736
23964W        W76860  17.221  17.471   1.051
23965W        W76861  19.558  33.509   8.800
23966W        W76862  23.000   1.691   3.169
23967W        W76863  33.811  30.737   0.290
23968W        W76864  29.689  18.528   9.430
23969W        W76865  19.984   0.549   9.444
23970W        W76866  22.978  21.847   1.582
23971W        W76867  35.751  31.387   2.700
23972W        W76868  29.603  33.739  10.268
23973W        W76869  30.671  35.049   8.414
23974W        W76870  21.694  23.000   2.218
23975W        W76871  13.174  20.118   9.979
23976W        W76872  24.887  18.143   3.014
23977W        W76873  29.472  25.758   7.944
23978W        W76874  14.348  32.275   1.144
23979W        W76875   8.372  17.022   8.332
23980W        W76876  16.612  30.174   9.038
23981W        W76877  24.787   6.306   1.057
23982W        W76878  10.988   4.167   0.928
23983W        W76879  33.449  25.325   9.990
23984W        W76880  28.809  20.804   8.278
23985W        W76881   4.835  19.011   1.624
23986W        W76882  23.528   0.931   2.683
23987W        W76883  26.371   9.677   8.502
23988W        W76884  32.499  29.037   7.555
23989W        W76885   7.279  20.597   0.602
23990W        W76886  32.819  15.438   7.945
23991W        W76887  10.603  14.210   0.675
23992W        W76888  28.856  11.774   7.764
23993W        W76889  33.965  24.957   8.565
23994W        W76890   8.944  35.848   1.650
23995W        W76891  22.291   3.026   9.839
23996W        W76892   1.055   1.405  10.298
23997W        W76893  30.820  18.339   9.559
23998W        W76894  30.240  24.725   7.709
23999W        W76895  34.534  24.629   2.846
24000W        W76896  23.266   1.948   8.363
24001W        W76897   4.108  35.426  10.289
24002W        W76898  15.009  20.274   2.248
24003W        W76899  29.660  29.294   9.873
24004W        W76900   7.601  23.437   1.523
24005W        W76901  14.837  31.938   0.183
24006W        W76902  16.123   4.159   1.892
24007W        W76903  17.495   2.208   6.977
24008W        W76904  13.121   6.178   0.998
24009W        W76905  18.079  23.961   1.763
24010W        W76906  17.178  32.288   0.659
24011W        W76907   0.770  30.142   0.544
24012W        W76908  25.338   0.760   3.361
24013W        W76909  12.567   6.521   9.702
24014W        W76910  32.455  20.596   1.488
24015W        W76911   0.099  33.904   1.816
24016W        W76912   3.857  23.394   2.585
24017W        W76913   6.316  29.658   7.491
24018W        W76914   4.982  33.747  10.214
24019W        W76915  20.760  27.451   0.962
24020W        W76916  34.744  27.300   1.775
24021W        W76917  27.226  18.526   7.750
24022W        W76918   2.098  33.206   9.176
24023W        W76919  19.030   2.330   2.927
24024W        W76920   0.011  19.373  10.004
24025W        W76921  18.474  10.909   8.044
24026W        W76922  21.540  23.518   7.791
24027W        W76923   6.970   5.154   8.080
24028W        W76924  29.368  31.500   2.118
24029W        W76925   6.330  12.871   0.509
24030W        W76926  34.623   5.468   7.382
24031W        W76927  22.800   9.706   2.506
24032W        W76928  24.085   1.570   8.307
24033W        W76929  25.112  31.893   8.240
24034W        W76930  10.146  11.871   8.106
24035W        W76931  13.220  35.426   1.094
24036W        W76932  31.412  10.230   7.227
24037W        W76933  19.291   2.824   3.034
24038W        W76934  16.357  11.979  10.081
24039W        W76935  22.896  34.268   1.660
24040W        W76936  15.682  12.051   3.506
24041W        W76937   0.164   7.711   2.884
24042W        W76938  35.537  25.471   0.273
24043W        W76939   6.065   9.573   1.360
24044W        W76940  27.583  22.585   8.934
24045W        W76941   2.674  26.772   1.910
24046W        W76942   6.482  35.820   0.687
24047W        W76943  31.492  18.781  10.160
24048W        W76944  10.339  28.538   9.662
24049W        W76945   2.705  12.187   2.191
24050W        W76946  29.925  35.326   8.461
24051W        W76947   9.981  15.160   8.100
24052W        W76948  34.531  28.956   9.855
24053W        W76949  11.064  11.911   2.488
24054W        W76950  32.656   4.800  10.334
24055W        W76951  17.149  15.310   2.464
24056W        W76952  18.920  21.378   8.258
24057W        W76953  33.809   4.750   7.983
24058W        W76954  25.577  27.891   1.353
24059W        W76955  13.715  28.386   7.311
24060W        W76956   5.655  14.532   3.107
24061W        W76957   2.364   8.907   3.001
24062W        W76958  28.244   1.761   1.180
24063W        W76959  31.485   6.267   3.213
24064W        W76960  31.898  31.510   8.847
24065W        W76961  11.733  13.801   8.002
24066W        W76962  10.710  24.643   1.109
24067W        W76963  10.628   5.236   8.326
24068W        W76964   7.614  20.454   2.406
24069W        W76965   3.820  24.997   9.860
24070W        W76966   1.671  15.208   0.998
24071W        W76967  30.203  33.016   1.987
24072W        W76968   1.018  16.949   2.477
24073W        W76969  23.207  10.623   3.583
24074W        W76970  22.973   9.178   8.228
24075W        W76971  27.043  34.166   9.977
24076W        W76972  12.929  14.001   1.635
24077W        W76973   3.819  19.253  10.249
24078W        W76974  33.629  26.769   3.055
24079W        W76975  33.515  31.768   9.574
24080W        W76976   4.024   6.531  10.204
24081W        W76977   0.968  28.237   3.421
24082W        W76978  12.436   7.856   2.904
24083W        W76979  18.925  33.996   0.867
24084W        W76980  35.346  23.379   9.115
24085W        W76981  21.843  10.584   7.831
24086W        W76982   5.096  23.386   7.790
24087W        W76983  32.633  30.211   1.201
24088W        W76984  19.843  21.166   3.396
24089W        W76985  13.913   9.254  10.120
24090W        W76986  15.426   4.127  10.216
24091W        W76987  26.871  34.517  10.300
24092W        W76988  11.187  11.828   0.369
24093W        W76989  28.155  16.266   8.700
24094W        W76990  33.621  34.164   2.596
24095W        W76991  11.093  27.028   7.479
24096W        W76992  19.730  18.866   1.114
24097W        W76993  10.521  27.991   2.318
24098W        W76994  25.165  34.452   9.071
24099W        W76995  21.301  10.574   8.639
24100W        W76996  29.925  32.624   8.071
24101W        W76997  29.576  30.721   1.204
24102W        W76998   4.643  30.697   2.166
24103W        W76999   0.765   4.398   9.382
24104W        W77000  29.208   5.097   9.735
24105W        W77001  24.028  34.672   0.495
24106W        W77002  26.871   7.413   0.008
24107W        W77003  25.559  28.979   8.086
24108W        W77004   0.634  10.425   0.051
24109W        W77005  26.414  18.514   1.456
24110W        W77006  16.521  23.744   7.446
24111W        W77007  10.119  17.726   2.295
24112W        W77008  27.375   2.292   3.032
24113W        W77009  32.885  35.112   1.842
24114W        W77010  11.285  21.915   7.645
24115W        W77011   0.906   9.161  10.060
24116W        W77012  17.372  32.041   3.395
24117W        W77013  16.752   4.074   8.276
24118W        W77014   7.928   6.505   8.620
24119W        W77015   4.434   8.273  10.107
24120W        W77016   1.821   2.446   3.525
24121W        W77017   8.122  21.697   0.884
24122W        W77018  13.437  25.481   0.315
24123W        W77019   0.716   5.562   1.047
24124W        W77020  14.958  18.298   8.711
24125W        W77021  10.582  16.145   2.190
24126W        W77022   1.277  15.798   2.038
24127W        W77023   1.815  34.540   0.974
24128W        W77024  22.328  30.451   0.921
24129W        W77025  11.821  28.021   8.610
24130W        W77026  23.451   2.116   1.951
24131W        W77027  20.671  22.458   3.483
24132W        W77028   8.802  19.031   0.437
24133W        W77029  12.607  16.669   0.803
24134W        W77030  12.813  25.462   0.641
24135W        W77031  12.801  15.952   9.713
24136W        W77032  17.678  11.352   7.794
24137W        W77033   1.175  16.726   0.223
24138W        W77034  19.426  32.902   1.970
24139W        W77035  25.708  12.514  10.078
24140W        W77036   5.234  12.435   3.164
24141W        W77037   1.957   6.647   8.297
24142W        W77038   0.217  28.812   1.390
24143W        W77039  26.087  13.065   2.699
24144W        W77040  35.559  29.843   7.981
24145W        W77041   2.619  12.060   1.272
24146W        W77042  25.203  35.138   2.178
24147W        W77043  24.895  29.920   2.422
24148W        W77044   7.767  34.310   6.710
24149W        W77045  27.810  34.810   2.199
24150W        W77046  31.731  32.563   2.716
24151W        W77047  18.512  30.545   2.545
24152W        W77048   4.870  23.726   1.030
24153W        W77049  29.803  26.486  10.135
24154W        W77050  25.539  35.521   2.007
24155W        W77051   0.649  12.052   8.033
24156W        W77052  35.135  27.031   9.783
24157W        W77053  18.172   2.240   8.000
24158W        W77054  13.723  22.077   1.120
24159W        W77055  20.742  23.231   8.949
24160W        W77056   6.569  29.745   8.444
24161W        W77057  18.995  14.915   8.256
24162W        W77058  10.484   9.987   1.574
24163W        W77059  25.455  23.899  10.095
24164W        W77060  21.307  29.541   0.552
24165W        W77061   6.620   9.545   0.058
24166W        W77062  29.996  13.430   1.688
24167W        W77063  27.841  16.392   0.905
24168W        W77064  11.955  33.932   2.536
24169W        W77065  25.962  18.019   1.052
24170W        W77066  33.182  34.981   0.070
24171W        W77067  15.668  11.934   0.108
24172W        W77068  26.438  22.934   0.459
24173W        W77069  26.673   8.277   0.082
24174W        W77070  20.627   6.099   1.649
24175W        W77071  14.673   1.019   0.150
24176W        W77072   5.607  22.310   8.064
24177W        W77073  14.295   5.008   9.633
24178W        W77074  22.549   7.604   1.004
24179W        W77075   3.759  31.261   0.945
24180W        W77076  22.444  32.388   3.608
24181W        W77077  21.852   5.304   8.786
24182W        W77078  34.708  30.454   2.969
24183W        W77079   3.537  19.095   7.825
24184W        W77080  24.555  31.067   2.170
24185W        W77081  35.183  28.352   9.732
24186W        W77082  31.331  34.204   9.938
24187W        W77083  32.804   2.481   2.373
24188W        W77084  15.303  16.387   9.879
24189W        W77085   5.846  13.101   8.399
24190W        W77086  13.866  29.941   9.246
24191W        W77087  21.129  13.242   7.418
24192W        W77088   7.660  28.947  10.289
24193W        W77089  30.837  31.664   3.095
24194W        W77090  17.104  17.630   8.570
24195W        W77091  11.796  28.480   9.395
24196W        W77092  34.486  17.720   9.832
24197W        W77093  16.362  14.027   7.030
24198W        W77094  24.844  22.731   8.951
24199W        W77095  28.293  30.998   1.681
24200W        W77096  35.972  33.051   0.249
24201W        W77097   2.075  12.584   1.878
24202W        W77098  28.284   9.634   3.013
24203W        W77099   6.360  15.962   8.756
24204W        W77100  22.817  17.118  10.326
24205W        W77101  11.796  21.340   9.543
24206W        W77102  11.883  16.061   0.379
24207W        W77103   1.704  13.781   0.435
24208W        W77104   6.305  25.491  10.300
24209W        W77105  22.945  27.239   2.690
24210W        W77106   9.634  11.853   2.009
24211W        W77107   9.197  26.506   2.991
24212W        W77108  25.994  28.012   9.640
24213W        W77109  18.963  26.061   0.727
24214W        W77110  27.770  30.120   9.864
24215W        W77111  31.452  30.608   9.880
24216W        W77112  28.700  22.318   0.430
24217W        W77113   0.860  32.197   2.869
24218W        W77114  25.214   6.289   1.357
24219W        W77115  34.661   2.622   0.635
24220W        W77116  32.294   8.708   9.907
24221W        W77117  20.906  19.817   0.348
24222W        W77118  14.466  15.529   9.313
24223W        W77119   6.248   8.693  10.220
24224W        W77120   4.964  34.480   9.082
24225W        W77121  16.279  18.366   2.699
24226W        W77122  24.523   4.795   8.582
24227W        W77123  26.923  34.538   8.485
24228W        W77124  26.858  30.157   9.721
24229W        W77125   8.850  33.556   3.285
24230W        W77126   4.551   1.786   8.873
24231W        W77127  30.156  22.330   1.425
24232W        W77128  15.900  35.676   2.618
24233W        W77129  12.939  11.393   7.989
24234W        W77130  30.714  29.555   9.474
24235W        W77131  32.841  11.620   1.490
24236W        W77132  17.942  15.524  10.057
24237W        W77133   0.950   9.209   2.497
24238W        W77134  29.405   5.129   0.589
24239W        W77135  20.563  34.207   9.749
24240W        W77136  14.612  20.810  10.329
24241W        W77137  29.122  26.368  10.316
24242W        W77138  12.930   2.832   8.117
24243W        W77139  29.737  18.500   0.155
24244W        W77140  27.904  11.605   2.990
24245W        W77141  28.417   0.805   7.451
24246W        W77142  23.669   9.588   2.024
24247W        W77143   1.153   5.849   9.289
24248W        W77144  35.259   6.907   9.306
24249W        W77145  11.693  32.879   0.477
24250W        W77146  15.586  35.481   1.044
24251W        W77147  27.606  27.999   1.735
24252W        W77148  27.518  18.610   7.235
24253W        W77149  12.923  31.552   2.111
24254W        W77150  17.161   9.353   2.374
24255W        W77151   6.312  20.020   1.450
24256W        W77152   2.456   6.455   1.207
24257W        W77153  20.884   6.797   7.782
24258W        W77154  14.206  32.225   9.438
24259W        W77155  26.499  26.684  10.320
24260W        W77156  25.281   6.012   7.636
24261W        W77157  13.798  10.953   2.593
24262W        W77158  26.304  29.222   8.056
24263W        W77159   5.916   7.702   7.314
24264W        W77160  16.851  34.787   0.996
24265W        W77161   5.041  28.079   2.696
24266W        W77162  22.427  25.054   9.927
24267W        W77163  35.615   2.902   0.791
24268W        W77164  17.180  22.158   8.163
24269W        W77165  19.727   1.484   8.274
24270W        W77166  12.217   9.014   8.275
24271W        W77167  12.236  27.565   8.999
24272W        W77168  30.364  24.954   0.265
24273W        W77169  34.936   0.037  10.107
24274W        W77170  32.615   8.489   8.714
24275W        W77171   9.071   8.174   0.705
24276W        W77172  32.739   5.099   0.450
24277W        W77173  34.040  32.185   9.070
24278W        W77174  20.939   0.834   9.786
24279W        W77175   8.216  17.053   3.303
24280W        W77176  31.280   2.988   1.354
24281W        W77177  20.750  30.090   8.159
24282W        W77178   6.492  34.082   0.373
24283W        W77179  20.762   0.781   0.215
24284W        W77180   3.468  24.926   8.168
24285W        W77181  23.798  13.928   3.132
24286W        W77182   7.045  10.317   0.354
24287W        W77183   9.255   7.795   9.144
24288W        W77184  25.271   2.703   2.392
24289W        W77185  23.763  32.932   0.751
24290W        W77186  15.264   3.565   3.535
24291W        W77187   8.499  25.020   2.196
24292W        W77188  10.809   1.718   1.870
24293W        W77189  13.213   8.010   0.130
24294W        W77190  20.158  22.624   0.079
24295W        W77191   8.216  16.673   0.123
24296W        W77192  15.273  31.109   1.418
24297W        W77193   0.136  14.738   9.793
24298W        W77194  21.658  35.304   8.238
24299W        W77195  35.164  16.073   9.310
24300W        W77196  31.675  23.676   0.584
24301W        W77197   2.957  24.573   7.545
24302W        W77198   2.180   3.446   9.988
24303W        W77199  27.694   4.290   9.331
24304W        W77200  19.505   5.145   9.380
24305W        W77201   9.986  19.723   1.871
24306W        W77202  12.583  35.362   8.846
24307W        W77203  23.155  30.072   8.649
24308W        W77204   7.324  23.628   8.643
24309W        W77205  32.986  30.872   9.524
24310W        W77206   4.339  28.685  10.333
24311W        W77207  13.544  12.282   2.167
24312W        W77208  27.359  25.114   1.000
24313W        W77209  34.684  29.176   2.350
24314W        W77210  32.508  14.657   9.505
24315W        W77211  10.048  33.121   9.179
24316W        W77212  22.194  30.297   9.949
24317W        W77213   7.899  21.414   0.185
24318W        W77214  27.396  28.319   0.252
24319W        W77215  26.943  10.164   2.293
24320W        W77216  10.402  15.978   0.760
24321W        W77217  35.387  24.917   3.462
24322W        W77218  18.319  30.015   2.370
24323W        W77219  11.903  15.925   2.724
24324W        W77220  25.444  12.291   7.260
24325W        W77221   2.284  13.476   4.382
24326W        W77222  16.756  23.267   2.628
24327W        W77223  30.771  26.110   1.400
24328W        W77224  21.292   7.414   2.263
24329W        W77225  33.801  15.767   2.902
24330W        W77226  30.209   9.103   7.686
24331W        W77227  15.210  24.427   3.393
24332W        W77228  29.298  26.191   7.082
24333W        W77229  12.704  22.600   0.842
24334W        W77230  35.812  22.753   9.323
24335W        W77231   0.021   9.901   1.173
24336W        W77232  15.919  33.230   8.647
24337W        W77233   1.230  29.105   2.169
24338W        W77234   3.522   1.682   8.977
24339W        W77235  28.506  13.008   0.205
24340W        W77236  29.143   6.982   1.303
24341W        W77237   4.393   4.146   3.609
24342W        W77238   9.341  25.944   9.569
24343W        W77239   1.286   6.990   8.026
24344W        W77240  12.763   2.771   8.798
24345W        W77241  18.473  26.723   9.794
24346W        W77242  10.514  11.453   7.115
24347W        W77243  22.848  30.349   8.981
24348W        W77244  35.168   1.227   9.330
24349W        W77245  28.040  30.061   7.111
24350W        W77246  18.097  18.899   9.705
24351W        W77247   4.126  18.824   3.495
24352W        W77248  14.140  32.428   3.151
24353W        W77249  31.915  27.233   2.011
24354W        W77250  32.561  29.824   8.769
24355W        W77251  15.638  11.981   0.748
24356W        W77252  30.016  11.412   0.079
24357W        W77253  13.017  23.485   1.209
24358W        W77254   9.748  10.083   8.487
24359W        W77255  29.661   9.963   2.360
24360W        W77256   7.083   3.645   1.258
24361W        W77257   2.801  20.129   8.349
24362W        W77258  33.536   4.772   0.094
24363W        W77259   3.449   5.196   1.274
24364W        W77260  30.564  17.526   9.313
24365W        W77261  17.502   3.129   3.636
24366W        W77262  12.617  30.065   0.375
24367W        W77263   0.593   1.625   7.351
24368W        W77264  23.604  32.813   2.696
24369W        W77265  14.421  11.936   8.506
24370W        W77266  35.724  33.399  10.252
24371W        W77267  18.129  30.153   2.889
24372W        W77268  19.677  22.905   1.399
24373W        W77269   3.982  17.455   3.268
24374W        W77270  14.370  31.671   9.316
24375W        W77271  13.391  26.161   1.853
24376W        W77272  13.211   1.548   3.099
24377W        W77273  31.479  12.218   3.002
24378W        W77274  33.885   8.219  10.150
24379W        W77275   1.576  25.871   1.857
24380W        W77276  24.308   5.382   0.863
24381W        W77277  26.285   4.348   1.781
24382W        W77278  25.885  14.792   2.195
24383W        W77279  28.448   4.485  10.227
24384W        W77280   8.072   2.558   9.652
24385W        W77281   4.165  16.968  10.312
24386W        W77282  19.298  17.591   1.842
24387W        W77283   7.808  11.941   3.374
24388W        W77284  25.902  21.599   9.694
24389W        W77285  25.743  12.031   7.929
24390W        W77286   9.816  14.741   0.307
24391W        W77287  25.070  19.550   0.899
24392W        W77288  14.100  26.493   1.282
24393W        W77289  18.181  19.924   3.853
24394W        W77290  16.594  12.314   9.663
24395W        W77291   5.153  22.972   2.121
24396W        W77292  11.594  33.132   2.712
24397W        W77293   0.031  31.654   1.459
24398W        W77294  28.262  22.072  10.031
24399W        W77295   4.922  31.980   2.788
24400W        W77296  11.319  29.034   8.473
24401W        W77297  16.667  11.428   2.984
24402W        W77298  32.594   3.865   2.197
24403W        W77299   0.617  21.284   9.149
24404W        W77300  34.295   4.176   7.337
24405W        W77301   3.592   1.537   3.348
24406W        W77302  22.124  11.620   8.642
24407W        W77303  15.470  14.995   8.996
24408W        W77304   0.892  27.480   9.780
24409W        W77305   6.399  26.425   9.050
24410W        W77306  18.064   1.116   3.701
24411W        W77307  11.016  29.060   9.854
24412W        W77308  14.421  13.290   8.829
24413W        W77309  11.358   3.956   0.172
24414W        W77310   2.252  30.898   2.952
24415W        W77311  22.913  12.680   8.363
24416W        W77312  16.094  15.736   9.760
24417W        W77313  21.935  12.490   8.363
24418W        W77314  29.318  19.628   7.875
24419W        W77315  14.181  29.391   8.830
24420W        W77316  30.809  35.009   2.109
24421W        W77317   0.151  24.381   8.969
24422W        W77318  20.219  34.826   9.263
24423W        W77319  23.657  21.193   1.183
24424W        W77320  23.701   9.720   2.945
24425W        W77321  25.382  35.125   8.582
24426W        W77322   8.179   5.140   3.629
24427W        W77323  13.708  19.942   1.714
24428W        W77324  18.506   6.578   1.328
24429W        W77325  11.774   0.599   9.580
24430W        W77326   6.636   1.171   9.411
24431W        W77327  17.801  30.044   7.371
24432W        W77328   2.263  29.687   7.824
24433W        W77329  19.223  21.623   1.718
24434W        W77330   2.667  11.657   9.410
24435W        W77331  32.969  16.000   0.185
24436W        W77332  26.058  26.141   9.523
24437W        W77333   9.404  19.413   8.719
24438W        W77334  31.084  19.012   8.421
24439W        W77335  30.604  34.089   8.640
24440W        W77336  19.788  11.157   3.081
24441W        W77337  30.285  23.496   0.642
24442W        W77338  10.568  14.076   1.368
24443W        W77339  17.117  32.914   3.199
24444W        W77340   3.096  17.683   9.002
24445W        W77341  27.819  29.578   8.809
24446W        W77342  18.341  27.182   0.557
24447W        W77343  33.069  12.893   1.098
24448W        W77344  26.800  13.682   0.363
24449W        W77345  27.064  34.735   9.030
24450W        W77346  19.559  32.065   9.952
24451W        W77347   7.649  12.429   2.468
24452W        W77348   3.408  26.287  10.094
24453W        W77349  20.617   0.373   3.385
24454W        W77350  14.131  17.286   7.646
24455W        W77351  13.120  11.598   9.115
24456W        W77352  26.075  18.961   0.609
24457W        W77353   5.396  12.524   1.070
24458W        W77354  33.747  12.467   7.185
24459W        W77355   8.746  13.947   2.180
24460W        W77356   4.348  22.234   0.163
24461W        W77357   5.339   6.087   8.536
24462W        W77358  23.614  17.065  10.303
24463W        W77359  13.416  16.729   3.696
24464W        W77360  26.037   9.682   0.101
24465W        W77361   7.001   4.978   7.508
24466W        W77362   1.205  11.527   9.024
24467W        W77363  14.495  22.930   2.230
24468W        W77364   3.067   4.917   0.068
24469W        W77365  34.798  31.994   9.466
24470W        W77366  18.348  24.721   9.118
24471W        W77367   3.914  21.881   4.182
24472W        W77368  31.263  23.797   1.986
24473W        W77369   4.122  23.907   2.467
24474W        W77370  21.346   2.765   9.814
24475W        W77371  23.334  34.124   7.985
24476W        W77372  17.414  28.881   2.051
24477W        W77373  11.348  30.576   8.464
24478W        W77374  15.348   6.063   8.267
24479W        W77375  32.206   5.984   2.958
24480W        W77376  16.706  27.871   9.127
24481W        W77377  30.183  23.674   9.034
24482W        W77378   9.578  29.304   1.950
24483W        W77379  13.347  10.130   9.266
24484W        W77380   6.960   1.751   2.816
24485W        W77381  24.402  16.555   9.030
24486W        W77382   8.213   9.501   9.110
24487W        W77383  23.050   5.932   9.584
24488W        W77384  28.364   1.555   9.189
24489W        W77385   0.315  25.230   2.774
24490W        W77386  22.893  18.705   8.230
24491W        W77387  31.758  12.731  10.011
24492W        W77388   9.766  24.327   1.431
24493W        W77389  18.345   9.914   1.327
24494W        W77390  26.127   7.627   1.469
24495W        W77391  33.506   1.812   7.588
24496W        W77392   0.262  16.089   4.259
24497W        W77393  31.009   3.349   0.306
24498W        W77394  20.787  24.583   2.892
24499W        W77395  29.274  34.661   8.770
24500W        W77396  21.132  29.466   3.497
24501W        W77397  20.440   5.067   3.083
24502W        W77398   3.153  15.310   9.796
24503W        W77399   9.897   6.090   8.001
24504W        W77400  16.574  30.025   8.520
24505W        W77401  11.619  26.634   9.024
24506W        W77402  10.561  32.975   3.316
24507W        W77403  17.317  12.253   8.327
24508W        W77404  31.648  27.814   0.718
24509W        W77405  18.454  18.923   8.829
24510W        W77406  15.459   2.410   0.362
24511W        W77407  30.337  25.306   8.936
24512W        W77408  31.098  17.881   7.841
24513W        W77409  16.930  28.310   3.380
24514W        W77410   3.305   1.851   1.559
24515W        W77411   0.874  28.881   9.912
24516W        W77412  25.696   4.700   0.969
24517W        W77413  23.234  21.437   0.524
24518W        W77414  21.543  31.451   1.929
24519W        W77415  13.010  24.770   1.512
24520W        W77416  31.176   0.391   0.509
24521W        W77417  12.787  14.721   2.166
24522W        W77418  18.403   2.249   0.919
24523W        W77419  31.420  14.588   2.275
24524W        W77420   0.518  20.679   3.860
24525W        W77421  16.553  18.353   3.194
24526W        W77422   0.486  34.160   9.332
24527W        W77423  23.443   9.096   8.137
24528W        W77424  23.467   3.577   1.163
24529W        W77425  15.864   9.746   3.236
24530W        W77426  11.525  16.516   2.199
24531W        W77427  11.410   0.777   3.049
24532W        W77428  26.229   4.226   8.850
24533W        W77429   6.448  13.108   9.852
24534W        W77430  29.865  31.588   2.320
24535W        W77431   0.888  12.350   9.019
24536W        W77432   3.568  25.751  10.279
24537W        W77433   9.533  12.113   9.956
24538W        W77434  32.302   1.994   2.564
24539W        W77435   9.692  33.514   9.332
24540W        W77436  24.114  35.276  10.039
24541W        W77437  23.749  25.284   9.519
24542W        W77438  31.602  17.721   2.892
24543W        W77439  23.147   3.966   1.094
24544W        W77440  12.007  16.497   8.123
24545W        W77441   0.612  20.649   0.547
24546W        W77442  19.910  20.335   1.770
24547W        W77443  16.199  15.469   2.454
24548W        W77444  17.191  16.780   9.951
24549W        W77445  28.738  31.702   7.334
24550W        W77446  16.335   9.524   8.778
24551W        W77447  15.153  31.623   1.419
24552W        W77448  34.409  33.857   3.065
24553W        W77449   7.841  23.766   1.956
24554W        W77450   3.253  30.858   0.262
24555W        W77451  19.571  26.379   8.398
24556W        W77452   1.070  32.646   3.166
24557W        W77453  21.029  29.343   2.297
24558W        W77454  27.397  26.126   8.679
24559W        W77455  26.047   4.268   1.189
24560W        W77456   6.316   3.520   2.144
24561W        W77457  14.004  27.091   2.641
24562W        W77458  35.093  21.282   0.949
24563W        W77459   5.592  12.297   7.922
24564W        W77460  32.096  10.769   0.458
24565W        W77461   0.544  28.029   8.489
24566W        W77462   4.169  24.098   0.624
24567W        W77463  34.872   1.522   9.067
24568W        W77464  21.474  28.897   8.321
24569W        W77465  14.760  29.703   3.003
24570W        W77466   0.487   2.986   9.210
24571W        W77467   1.999   5.089   9.117
24572W        W77468  31.369  24.978   2.954
24573W        W77469  33.960   4.472   8.388
24574W        W77470   8.920   0.199   0.186
24575W        W77471  30.139   2.013   9.235
24576W        W77472  15.314  25.953   9.416
24577W        W77473  12.381  21.394   7.362
24578W        W77474  21.383  26.381   8.205
24579W        W77475  19.050   4.726   2.109
24580W        W77476  20.179  20.770   1.815
24581W        W77477   8.789  16.458   0.943
24582W        W77478  17.656  32.917   2.156
24583W        W77479  12.085   2.394   2.664
24584W        W77480  15.497   2.819   2.655
24585W        W77481  26.114  27.561   9.838
24586W        W77482   0.437  14.064   3.816
24587W        W77483  23.636   2.419   9.933
24588W        W77484  23.401  24.837   9.668
24589W        W77485  26.085   7.962   8.977
24590W        W77486   6.210   5.436  10.079
24591W        W77487  18.443  14.039   7.866
24592W        W77488  31.521   1.147   9.008
24593W        W77489  25.722  20.045   8.120
24594W        W77490   8.659   8.993   7.746
24595W        W77491  31.433   4.184   8.794
24596W        W77492  32.176  36.006   2.738
24597W        W77493  13.679  14.068   0.545
24598W        W77494  28.358  13.834   8.542
24599W        W77495  19.752  12.699   9.379
24600W        W77496  32.023  30.607   9.460
24601W        W77497  28.016  19.628   1.043
24602W        W77498  19.502  16.318   9.645
24603W        W77499  16.534   9.324   9.884
24604W        W77500  19.273   9.943   2.517
24605W        W77501  27.236  27.505   1.435
24606W        W77502  33.744  10.664   9.124
24607W        W77503  11.335   9.743   7.391
24608W        W77504  19.617  20.603   2.798
24609W        W77505  17.190  29.372   8.361
24610W        W77506  29.868  30.961   8.094
24611W        W77507   8.158  32.848   7.593
24612W        W77508  11.060  10.088   2.175
24613W        W77509  26.632  34.494   9.903
24614W        W77510   8.873  30.607   0.586
24615W        W77511  21.368   9.750   0.480
24616W        W77512  10.614  18.234   7.253
24617W        W77513   6.103  20.726   8.424
24618W        W77514   0.181  23.938   9.935
24619W        W77515   0.886  21.662   0.890
24620W        W77516  28.234  34.719   1.145
24621W        W77517  25.816  17.728   0.129
24622W        W77518  15.197   5.137   2.426
24623W        W77519  31.663  32.207   2.386
24624W        W77520   3.465  32.913   3.160
24625W        W77521  14.170   7.578   3.206
24626W        W77522   0.896  14.240   3.249
24627W        W77523   7.868  19.972   9.870
24628W        W77524   6.095  22.151   1.282
24629W        W77525  31.567   1.831   3.302
24630W        W77526  33.519  16.729   9.709
24631W        W77527  17.967   1.906   1.238
24632W        W77528  15.446  36.013   2.957
24633W        W77529  34.108  30.604   2.321
24634W        W77530  32.097  19.437   2.161
24635W        W77531  27.230   4.130   0.805
24636W        W77532   2.389  17.304   9.258
24637W        W77533   0.897  10.897   1.344
24638W        W77534   9.386  18.813   9.846
24639W        W77535  12.420  30.729   3.253
24640W        W77536  13.349  11.140   2.676
24641W        W77537  21.445   2.798  10.331
24642W        W77538  21.798  19.785   8.089
24643W        W77539  31.744  30.599   7.422
24644W        W77540   5.623  11.563   1.846
24645W        W77541   4.674  34.487   7.356
24646W        W77542  35.312  14.871   2.483
24647W        W77543  23.580   3.999   0.871
24648W        W77544  11.399  29.446   3.497
24649W        W77545  18.158  17.932   3.546
24650W        W77546  20.207  29.791   8.946
24651W        W77547   3.173  34.293   8.498
24652W        W77548  19.644  23.629   7.786
24653W        W77549  32.890   7.286   7.831
24654W        W77550  35.637   1.881   8.824
24655W        W77551  27.889  23.115   0.197
24656W        W77552  16.663  16.128   3.086
24657W        W77553  27.415  16.572   8.718
24658W        W77554   8.971  22.682   0.611
24659W        W77555  20.887  13.149   9.804
24660W        W77556  21.096  27.645   1.280
24661W        W77557  24.807  27.993   8.833
24662W        W77558   8.933  21.122  10.254
24663W        W77559  23.059   0.883   1.035
24664W        W77560  30.992  26.734   9.727
24665W        W77561   3.512  28.879   3.205
24666W        W77562   9.687   4.440   3.190
24667W        W77563  16.649  24.897   3.251
24668W        W77564  28.567  28.843   9.854
24669W        W77565   1.172  29.595   3.115
24670W        W77566  18.525  29.715   0.657
24671W        W77567  10.037  18.411   9.500
24672W        W77568   0.766  29.035   0.077
24673W        W77569   8.277  31.127   9.136
24674W        W77570  25.390  30.956   8.853
24675W        W77571  10.920  11.942   1.634
24676W        W77572  20.236  24.628   9.660
24677W        W77573  34.143  10.848   7.471
24678W        W77574  29.243   2.717   7.570
24679W        W77575  19.686   3.879   7.929
24680W        W77576  32.305   8.482   7.864
24681W        W77577  21.726   7.319   2.519
24682W        W77578  17.229   4.942   9.588
24683W        W77579  13.880  23.871   1.616
24684W        W77580  16.180  12.345   9.222
24685W        W77581  25.930  35.907   8.260
24686W        W77582   5.680  26.013   0.324
24687W        W77583  25.227   8.201   8.352
24688W        W77584  32.134  15.520   9.769
24689W        W77585  11.685   1.309  10.233
24690W        W77586   9.211  29.400   7.458
24691W        W77587   6.154  16.485   8.701
24692W        W77588   3.340   0.120   1.251
24693W        W77589   9.117  18.113  10.029
24694W        W77590  24.696   2.366   2.033
24695W        W77591  17.988  12.710   8.937
24696W        W77592  14.306  35.031   7.625
24697W        W77593   4.590   9.891   1.518
24698W        W77594  31.694   2.348   3.408
24699W        W77595  21.200  35.717   2.706
24700W        W77596  34.833   5.278   1.881
24701W        W77597  30.414   2.181   8.250
24702W        W77598  17.811   4.374   8.277
24703W        W77599  21.416  16.610   3.828
24704W        W77600  33.755  19.910   9.088
24705W        W77601  31.428   1.795   9.274
24706W        W77602   4.270  25.344   9.028
24707W        W77603  24.893  11.799   0.398
24708W        W77604  18.885  13.278   8.917
24709W        W77605  16.822  15.669   8.978
24710W        W77606  31.304   8.062   8.615
24711W        W77607   0.454   5.957   0.125
24712W        W77608   8.306  23.570   9.537
24713W        W77609   4.411  22.882   8.204
24714W        W77610  20.754  34.259   2.139
24715W        W77611  19.172  12.439   7.539
24716W        W77612  24.772   2.869   8.252
24717W        W77613  30.511  18.725   0.717
24718W        W77614   0.342  20.827   8.977
24719W        W77615   8.973  27.817   2.488
24720W        W77616   5.598  25.743   2.655
24721W        W77617   6.084  21.481   0.660
24722W        W77618  17.618  26.408   9.187
24723W        W77619  22.513  23.801   8.111
24724W        W77620  10.233   8.899   1.444
24725W        W77621  24.221  29.293   2.896
24726W        W77622  33.775  33.294   1.399
24727W        W77623   9.230   4.696   2.482
24728W        W77624  15.216  17.929   1.134
24729W        W77625  21.838   0.430   9.451
24730W        W77626  26.795  15.742   8.276
24731W        W77627  12.931  26.659   1.126
24732W        W77628  14.561  16.532   9.926
24733W        W77629  13.055   1.550   2.315
24734W        W77630  24.275  19.702   2.588
24735W        W77631  28.235   9.621   1.989
24736W        W77632  35.400  29.588   2.688
24737W        W77633  10.061  33.467   0.067
24738W        W77634  13.170  33.354   0.636
24739W        W77635  34.915  26.915   8.549
24740W        W77636  29.019  29.026   9.424
24741W        W77637  35.812  32.222   1.700
24742W        W77638  15.362  24.167   8.077
24743W        W77639   1.742  23.301   0.255
24744W        W77640   8.140  33.165   2.354
24745W        W77641  19.991  15.133   8.939
24746W        W77642   4.776  12.625   3.277
24747W        W77643  31.871   0.723   3.034
24748W        W77644   3.664  35.995   9.387
24749W        W77645  28.904  23.037   0.175
24750W        W77646  23.172  31.329   0.644
24751W        W77647  14.919   5.494   2.089
24752W        W77648  22.911  34.880   9.288
24753W        W77649   2.081  31.814   8.711
24754W        W77650  11.320   0.987   9.900
24755W        W77651   6.938   6.484   7.484
24756W        W77652  21.007  23.651   2.705
24757W        W77653  21.909  34.737   1.974
24758W        W77654   6.025  31.785   7.707
24759W        W77655  27.986  20.273   3.700
24760W        W77656  16.410   1.158   8.780
24761W        W77657  31.570   5.494   9.180
24762W        W77658  19.810  22.988   1.888
24763W        W77659   4.481  20.746   0.777
24764W        W77660  23.663  27.291   8.658
24765W        W77661  12.231  34.079   3.024
24766W        W77662  15.798   6.719   9.446
24767W        W77663  34.319   2.290   9.192
24768W        W77664   8.692  26.312   9.877
24769W        W77665  13.051   2.762   1.024
24770W        W77666   4.401   0.594   0.794
24771W        W77667  28.403   8.774   7.955
24772W        W77668   1.247   5.503   8.858
24773W        W77669   0.892  14.016   1.162
24774W        W77670  29.242  35.330   2.596
24775W        W77671   7.518  15.353   7.889
24776W        W77672  21.494  28.760   0.331
24777W        W77673  30.472  27.304   1.808
24778W        W77674  33.218  22.344   9.144
24779W        W77675  35.779   0.480   1.677
24780W        W77676  17.944   9.592  10.235
24781W        W77677   0.937  24.744   8.566
24782W        W77678  10.639  12.090   3.499
24783W        W77679   8.777  10.486   9.968
24784W        W77680   6.743  22.108   0.752
24785W        W77681  35.563  16.260   9.704
24786W        W77682   6.661   6.710  10.108
24787W        W77683   9.499  11.377   9.481
24788W        W77684  21.891   4.740   7.765
24789W        W77685  18.871  21.911   1.952
24790W        W77686   5.761  23.532   2.780
24791W        W77687   1.056  22.023   0.608
24792W        W77688  22.242   3.816   9.941
24793W        W77689   3.589  17.687   2.040
24794W        W77690  35.685  12.554   0.545
24795W        W77691  18.026   2.613   8.938
24796W        W77692  13.925   2.563   1.868
24797W        W77693  27.078  11.052   8.986
24798W        W77694  17.899  23.502   9.134
24799W        W77695  11.501  12.984   2.064
24800W        W77696   7.999   0.592   0.177
24801W        W77697   0.919  25.649   9.572
24802W        W77698   3.334  21.168  10.289
24803W        W77699  20.862   1.488   1.602
24804W        W77700  33.998  25.067   9.551
24805W        W77701   9.020  17.516   2.513
24806W        W77702  10.379  24.259   2.405
24807W        W77703  24.381  17.732   1.445
24808W        W77704  22.409  18.341   0.433
24809W        W77705  29.368  21.133   3.115
24810W        W77706  26.865  23.278   8.141
24811W        W77707  34.363  14.510   8.346
24812W        W77708  22.692  17.566  10.161
24813W        W77709  35.183  27.535   9.871
24814W        W77710  13.848   8.354   2.785
24815W        W77711  21.533  31.556   9.491
24816W        W77712  31.340  10.627   0.106
24817W        W77713  13.868   5.757   2.062
24818W        W77714   2.604  11.197   8.672
24819W        W77715  17.832   2.853   0.868
24820W        W77716  33.298   5.411   1.963
24821W        W77717  29.829  16.273   8.587
24822W        W77718   8.219  32.987   0.196
24823W        W77719  19.412  26.916   1.124
24824W        W77720  17.030  14.218   7.753
24825W        W77721   1.684  30.512   8.613
24826W        W77722  30.219  35.624   7.806
24827W        W77723   1.575   7.026   0.911
24828W        W77724   9.559  10.668   1.223
24829W        W77725   0.342  19.368   7.995
24830W        W77726  27.345  34.430   8.682
24831W        W77727   5.784  17.444  10.299
24832W        W77728   7.882  16.152   1.040
24833W        W77729   9.090   4.781   0.117
24834W        W77730  30.843  17.735   6.944
24835W        W77731   6.296  26.627   1.677
24836W        W77732  14.292  22.196   9.709
24837W        W77733   3.076  24.196   4.243
24838W        W77734  27.042   5.667   8.288
24839W        W77735   7.819   0.899   1.211
24840W        W77736  14.713  22.817   9.339
24841W        W77737  20.451  12.320   2.297
24842W        W77738  29.597   5.839   0.662
24843W        W77739  34.495   2.892   7.983
24844W        W77740  17.450  33.411  10.149
24845W        W77741  17.854  33.185   0.943
24846W        W77742  35.999  31.938   9.727
24847W        W77743  24.776   3.893   7.927
24848W        W77744  12.475  22.568   1.797
24849W        W77745  11.441   9.822   1.246
24850W        W77746   8.750  14.262   2.765
24851W        W77747  20.642   6.197   9.864
24852W        W77748  20.614  24.876   8.914
24853W        W77749   0.602  22.579   9.904
24854W        W77750  21.176  12.771   1.342
24855W        W77751  18.666  33.128   7.842
24856W        W77752  17.108  16.173   2.886
24857W        W77753  22.280  20.488   0.839
24858W        W77754  25.054   8.326   1.995
24859W        W77755   8.435   8.652   8.896
24860W        W77756   1.153  17.489   2.364
24861W        W77757  23.925  12.520   1.988
24862W        W77758  20.997  20.440   9.376
24863W        W77759  15.108  35.314   1.046
24864W        W77760  18.187   6.004   0.235
24865W        W77761  27.287  18.798   2.274
24866W        W77762  17.306  23.510   8.919
24867W        W77763   4.156  20.276   8.890
24868W        W77764  22.214  25.989   0.059
24869W        W77765  11.610  17.486   1.216
24870W        W77766   5.611  28.494   0.990
24871W        W77767  26.157   0.623  10.174
24872W        W77768  34.400  13.879   2.551
24873W        W77769  30.406  17.593   0.627
24874W        W77770   0.608  35.987  10.076
24875W        W77771  28.679  32.651   6.883
24876W        W77772   5.520  34.818   1.866
24877W        W77773   1.145  11.742   8.493
24878W        W77774  29.099   4.455   7.394
24879W        W77775  24.069  16.759   0.001
24880W        W77776  27.969   2.808   9.574
24881W        W77777  12.727  17.052   2.283
24882W        W77778  13.594  10.962   1.286
24883W        W77779   2.074  32.933   9.977
24884W        W77780  12.571  24.248   2.308
24885W        W77781   6.958  28.029   8.124
24886W        W77782   6.063  31.007   8.145
24887W        W77783  29.151  19.318   0.262
24888W        W77784   4.103  22.043   9.749
24889W        W77785   3.711  11.977   1.634
24890W        W77786  30.104  32.694   9.932
24891W        W77787   5.842  35.822   1.406
24892W        W77788  23.650  30.903   8.360
24893W        W77789   1.320  14.237   2.883
24894W        W77790   8.250  24.420   9.508
24895W        W77791  18.487  10.030   9.162
24896W        W77792   8.777  14.389   8.582
24897W        W77793   4.956   5.531   1.311
24898W        W77794  25.957  14.512   7.733
24899W        W77795   5.164   6.272   1.908
24900W        W77796   0.353  18.266   8.810
24901W        W77797  10.414   3.232   1.352
24902W        W77798   5.618   8.848   1.582
24903W        W77799  30.456  20.686   7.975
24904W        W77800  25.839   8.679   0.586
24905W        W77801  12.907   8.808   9.117
24906W        W77802  27.142  17.560   8.741
24907W        W77803   2.578   8.307   8.919
24908W        W77804  22.548   2.190   0.849
24909W        W77805   6.121  32.547   1.049
24910W        W77806  26.342  22.995   7.622
24911W        W77807  22.051  35.061   8.991
24912W        W77808  30.089  27.212   8.597
24913W        W77809  24.830   1.198   8.232
24914W        W77810  19.315  16.698   8.106
24915W        W77811  12.609  25.911   2.352
24916W        W77812  16.119  17.476   3.135
24917W        W77813  13.755   5.928   0.040
24918W        W77814   6.853   9.581   7.678
24919W        W77815   2.674   9.116   2.103
24920W        W77816  14.334   8.620   3.217
24921W        W77817  25.830   7.179   1.543
24922W        W77818  14.075  19.035   1.866
24923W        W77819  33.283  19.348   8.276
24924W        W77820  18.535   0.881   8.445
24925W        W77821   0.588  29.836   1.479
24926W        W77822  16.938  10.252   8.548
24927W        W77823   0.196  13.929   8.745
24928W        W77824  34.920   7.551   0.430
24929W        W77825  19.269   4.984   1.745
24930W        W77826   8.980  25.126   1.670
24931W        W77827  34.730   5.907   7.552
24932W        W77828  11.039  35.120   0.385
24933W        W77829   6.487   1.371   1.027
24934W        W77830  32.072  17.625  10.042
24935W        W77831   3.746  13.667   8.618
24936W        W77832  30.441  12.950   9.175
24937W        W77833  20.381   9.196   2.995
24938W        W77834   0.381  17.655   0.037
24939W        W77835  35.919  35.642   2.479
24940W        W77836  29.486  14.872   0.091
24941W        W77837  14.614  24.135  10.324
24942W        W77838  23.776   9.572   0.833
24943W        W77839   1.956  33.868   8.014
24944W        W77840  28.645  28.833   8.243
24945W        W77841  17.956  27.737   3.645
24946W        W77842  13.737  31.555   9.977
24947W        W77843  18.749  19.994   2.270
24948W        W77844  12.270  19.911   8.481
24949W        W77845  32.360  20.790   9.408
24950W        W77846   3.227   7.531   1.527
24951W        W77847  12.492  32.893   1.975
24952W        W77848  13.711  23.129   9.509
24953W        W77849  25.646  11.406   2.666
24954W        W77850  35.283  27.640   2.306
24955W        W77851  32.636  11.995   2.869
24956W        W77852  21.249  34.294   8.144
24957W        W77853  28.383  27.570   9.277
24958W        W77854   2.858  11.695   7.757
24959W        W77855  16.175  28.284   3.699
24960W        W77856  21.843   2.807  10.037
24961W        W77857  21.292  12.985   2.144
24962W        W77858  21.125   8.973   2.804
24963W        W77859  26.543  21.853   8.523
24964W        W77860   2.880  25.046   3.822
24965W        W77861  20.145  28.952   9.859
24966W        W77862  28.336   8.713   2.764
24967W        W77863  23.863  22.837   0.360
24968W        W77864  24.927  11.631   3.337
24969W        W77865  29.351   4.142   1.687
24970W        W77866  16.675  25.497   0.012
24971W        W77867  16.403  20.614   0.111
24972W        W77868  14.841   2.214   7.881
24973W        W77869  33.030  27.653   1.683
24974W        W77870  22.205  12.717   0.709
24975W        W77871  35.152   5.191   3.427
24976W        W77872   1.241   3.388   9.910
24977W        W77873  30.932  17.556   9.713
24978W        W77874   3.828   1.931   7.907
24979W        W77875  29.759  15.192  10.166
24980W        W77876  25.544  25.258   1.049
24981W        W77877  14.193  18.923   8.843
24982W        W77878  31.863  20.148   2.652
24983W        W77879   7.739  12.729   0.333
24984W        W77880  25.934   5.651   2.444
24985W        W77881  20.173   2.320   3.053
24986W        W77882   6.807  35.053   1.317
24987W        W77883   1.430   3.120   7.488
24988W        W77884  26.795   3.376   7.509
24989W        W77885  14.399  22.957   1.310
24990W        W77886  10.063  16.913   1.825
24991W        W77887  27.695  16.642   2.774
24992W        W77888   2.485  28.520   3.430
24993W        W77889   3.166  35.675  10.267
24994W        W77890  19.986  17.567   1.882
24995W        W77891  32.488   7.556   8.762
24996W        W77892   7.060  24.819   2.175
24997W        W77893   5.115  14.357   3.044
24998W        W77894  27.613  17.202   7.764
24999W        W77895  17.120   5.443   8.771
25000W        W77896   1.734  26.819   9.182
25001W        W77897  24.325   4.535   9.468
25002W        W77898   2.343   6.542   9.685
25003W        W77899  15.327   1.689   9.449
25004W        W77900  16.703  18.712   8.258
25005W        W77901  15.504  16.020   3.732
25006W        W77902  13.231   7.327   3.571
25007W        W77903   9.165  17.145   7.192
25008W        W77904  10.569  28.937   0.664
25009W        W77905  20.326  12.897   9.161
25010W        W77906  33.913   4.365   2.693
25011W        W77907  27.215  32.138   1.915
25012W        W77908  22.206   9.730   8.300
25013W        W77909  26.752  26.618   9.895
25014W        W77910  24.327  28.207   8.817
25015W        W77911  29.469  27.684   8.003
25016W        W77912  24.958  28.451   8.621
25017W        W77913   2.559   4.597   2.120
25018W        W77914  17.881   9.917   3.179
25019W        W77915  30.292  19.294   2.218
25020W        W77916  10.829  33.956   9.994
25021W        W77917   3.783  18.782   8.961
25022W        W77918  31.109  25.254   7.526
25023W        W77919   7.586  24.741   1.046
25024W        W77920  19.885  15.505   0.122
25025W        W77921  30.028  32.374   9.226
25026W        W77922  30.128  17.897   8.590
25027W        W77923  13.065  23.426   9.841
25028W        W77924  24.776  14.822   3.403
25029W        W77925  19.836  28.971   0.088
25030W        W77926   2.212  21.266   7.744
25031W        W77927  33.681  16.525   1.076
25032W        W77928   7.852   6.201   9.048
25033W        W77929  26.094  32.629  10.072
25034W        W77930  33.403  16.951   0.823
25035W        W77931  18.627  16.603   2.601
25036W        W77932  11.863  35.994   0.344
25037W        W77933   3.286  28.474   9.086
25038W        W77934  31.193   5.264   2.127
25039W        W77935  18.000   9.955   1.691
25040W        W77936  23.410   5.725   0.284
25041W        W77937   6.849  15.293  10.244
25042W        W77938   3.281  34.983   8.842
25043W        W77939  17.960  16.758   9.772
25044W        W77940  28.527  34.473   9.696
25045W        W77941  28.510  35.319   3.360
25046W        W77942  10.715   3.393   7.718
25047W        W77943  11.914  13.858   1.015
25048W        W77944  21.428   6.592   0.455
25049W        W77945   8.229  25.657   8.637
25050W        W77946  29.791  35.012   2.441
25051W        W77947   4.304  27.168  10.260
25052W        W77948  10.088   1.810   7.156
25053W        W77949  25.919  20.558   1.195
25054W        W77950  19.895  22.472   9.506
25055W        W77951  11.940   0.300   8.659
25056W        W77952   4.098  15.673  10.037
25057W        W77953  21.728  16.287   3.501
25058W        W77954  28.185  25.102   1.494
25059W        W77955  33.370  33.546   1.545
25060W        W77956  31.062   3.429   1.005
25061W        W77957  12.819  14.813   8.964
25062W        W77958   6.051  14.917   8.895
25063W        W77959  13.723  26.650   9.087
25064W        W77960  24.786  18.148   2.559
25065W        W77961  12.022   1.213   7.269
25066W        W77962  20.037   0.337   8.448
25067W        W77963   1.808  30.523   1.977
25068W        W77964  28.202  33.688   9.867
25069W        W77965   6.577   5.021   7.798
25070W        W77966   3.229   8.606   2.976
25071W        W77967  17.007  18.999   2.978
25072W        W77968   6.190   6.190   2.804
25073W        W77969  28.048   8.264   0.736
25074W        W77970  24.010  10.809   0.340
25075W        W77971  26.133  31.932   9.407
25076W        W77972  32.980   7.706   2.349
25077W        W77973  15.285  30.227   8.492
25078W        W77974  15.530   6.858   9.965
25079W        W77975  12.035  31.974   2.773
25080W        W77976  34.386   1.595   8.809
25081W        W77977  31.754  18.348   8.779
25082W        W77978  33.956  13.089  10.185
25083W        W77979  10.785   3.135   1.759
25084W        W77980   0.555  25.283   2.331
25085W        W77981   6.428   4.170   1.219
25086W        W77982   6.485  16.210  10.034
25087W        W77983   8.648  12.573   2.630
25088W        W77984  27.908   3.327   1.031
25089W        W77985  31.487   9.000   1.424
25090W        W77986  27.547  11.452   7.673
25091W        W77987  20.079   3.698   1.746
25092W        W77988  30.166   9.859   1.741
25093W        W77989  23.323  21.286   3.541
25094W        W77990  34.873  29.069   7.029
25095W        W77991  25.015  28.944   8.520
25096W        W77992  13.037   3.913   8.757
25097W        W77993   0.503  27.902  10.074
25098W        W77994   4.957  19.780   2.299
25099W        W77995  27.241  15.248   2.253
25100W        W77996   2.888  20.358   0.034
25101W        W77997  32.843  27.292   7.861
25102W        W77998   9.624   1.370   9.318
25103W        W77999  13.090  14.328  10.023
25104W        W78000   3.231  17.985   8.337
25105W        W78001  24.250   8.313   3.725
25106W        W78002  26.701  10.232   2.785
25107W        W78003  24.492  29.826   7.046
25108W        W78004  10.490  30.330   8.098
25109W        W78005  24.074   5.721   9.864
25110W        W78006  28.781   2.546  10.239
25111W        W78007  35.156  29.781   0.386
25112W        W78008  13.265  29.517   3.661
25113W        W78009  12.735   0.498   8.412
25114W        W78010  11.045  31.787   2.532
25115W        W78011  35.072   7.823   9.220
25116W        W78012   7.767   1.834   9.571
25117W        W78013   7.504  34.737   9.182
25118W        W78014  34.331  35.105   8.013
25119W        W78015  28.461  26.848   0.909
25120W        W78016   6.543  15.367   9.273
25121W        W78017   8.421  17.721  10.299
25122W        W78018  15.166  28.922   1.145
25123W        W78019   3.615  29.457   9.308
25124W        W78020   4.177  27.178   9.763
25125W        W78021  22.226  24.146   9.899
25126W        W78022  25.828  17.022   1.881
25127W        W78023  30.512  19.013   9.222
25128W        W78024   8.660  25.431   9.462
25129W        W78025  19.128  17.631   0.244
25130W        W78026  11.150  34.703   0.169
25131W        W78027  31.918  28.069   1.069
25132W        W78028   0.785  11.593   0.213
25133W        W78029  35.219  35.694   0.027
25134W        W78030  34.333   0.752   0.728
25135W        W78031   6.805   3.601   8.132
25136W        W78032  23.879   6.245   8.541
25137W        W78033  25.404  15.566   3.106
25138W        W78034  18.945   3.056   1.444
25139W        W78035  11.987  27.146   1.260
25140W        W78036  20.315  17.125  10.186
25141W        W78037   4.170   0.645   0.165
25142W        W78038  17.592   6.977   2.277
25143W        W78039  31.338  23.742  10.175
25144W        W78040   9.585  17.780   9.987
25145W        W78041   7.669  21.733   0.512
25146W        W78042  12.998   5.273   9.190
25147W        W78043  25.061  24.664   2.638
25148W        W78044  12.622  12.447   1.103
25149W        W78045   6.994  30.831   9.951
25150W        W78046  10.260  11.916   0.586
25151W        W78047  19.148  27.250   2.020
25152W        W78048  26.518  23.039  10.007
25153W        W78049  10.608  13.156   0.600
25154W        W78050  32.913  22.746   3.497
25155W        W78051  22.755  12.200   8.345
25156W        W78052   2.702  25.043   2.677
25157W        W78053  32.086  18.173   3.387
25158W        W78054  12.915   8.391   3.120
25159W        W78055  20.380  29.289   7.775
25160W        W78056  24.607   7.267   8.568
25161W        W78057  31.636   6.529   3.636
25162W        W78058   2.482  19.228   2.546
25163W        W78059   3.736  27.911   1.183
25164W        W78060  25.594   0.804   9.447
25165W        W78061  26.609  35.589   1.010
25166W        W78062  24.939   7.985   0.438
25167W        W78063  33.118  19.539   1.570
25168W        W78064  14.353  24.049   9.854
25169W        W78065   8.755  35.377   1.481
25170W        W78066  17.784   0.257   1.876
25171W        W78067  28.028   8.743   0.815
25172W        W78068  14.855   5.507   8.735
25173W        W78069  17.768  16.522   0.711
25174W        W78070  34.226  21.480   9.222
25175W        W78071  23.449  30.201   9.023
25176W        W78072  12.436  13.394   2.482
25177W        W78073   3.135  34.473   7.975
25178W        W78074  25.944  23.733   9.162
25179W        W78075  11.914   8.200   7.690
25180W        W78076  28.036  26.637   0.747
25181W        W78077  18.627  35.533   3.022
25182W        W78078   3.347  17.135   9.233
25183W        W78079  32.376  15.957   8.500
25184W        W78080   4.433  16.534   7.882
25185W        W78081  11.235  29.347   2.741
25186W        W78082   3.392   2.453   8.629
25187W        W78083  21.718   0.620   0.248
25188W        W78084   4.888   8.738   3.341
25189W        W78085   4.646   2.294   2.087
25190W        W78086   9.801   8.441   2.497
25191W        W78087  22.506  12.297   3.951
25192W        W78088  27.203  25.826   0.273
25193W        W78089  26.720  15.850   2.400
25194W        W78090  24.568   9.763   8.998
25195W        W78091   6.439   5.367   1.960
25196W        W78092  29.236  26.448   3.075
25197W        W78093  27.349  24.382   1.438
25198W        W78094  13.227  31.246   9.648
25199W        W78095  29.719   0.057   1.475
25200W        W78096  17.990  27.443   9.757
25201W        W78097  21.211  25.042   8.025
25202W        W78098  14.103  16.963   2.061
25203W        W78099   5.173  33.194   3.742
25204W        W78100  31.318   6.786   8.955
25205W        W78101  34.986  14.332   1.352
25206W        W78102  19.655  17.963   2.883
25207W        W78103   5.738  24.519   9.272
25208W        W78104  26.017   0.183   9.205
25209W        W78105   6.994  33.564  10.001
25210W        W78106  16.456  12.409   2.901
25211W        W78107   7.142  31.224   8.421
25212W        W78108   7.222  11.525   9.509
25213W        W78109   8.403  31.070   9.680
25214W        W78110   1.426   9.223   2.133
25215W        W78111  30.554  32.069   8.784
25216W        W78112  29.623   0.924   2.558
25217W        W78113  19.004  22.958   2.416
25218W        W78114   8.543  32.557   7.838
25219W        W78115  34.606  34.719   9.634
25220W        W78116  34.633  34.221   9.468
25221W        W78117  24.051   0.139   8.891
25222W        W78118  35.622  23.016   1.232
25223W        W78119  33.438  25.112   2.200
25224W        W78120  11.538   9.224   0.217
25225W        W78121  35.606   4.206   3.351
25226W        W78122  11.186  15.308  10.018
25227W        W78123  11.654  10.520   9.652
25228W        W78124  24.199   2.973   2.535
25229W        W78125   3.115  16.457   9.017
25230W        W78126  31.311  13.144   0.333
25231W        W78127  20.164   8.717   0.720
25232W        W78128  12.638  15.178   8.126
25233W        W78129   5.181  34.866   8.783
25234W        W78130   1.030  21.948   7.689
25235W        W78131  17.110  13.203   3.113
25236W        W78132  21.160   8.367   1.262
25237W        W78133   7.884  30.431   9.160
25238W        W78134   7.418  17.241   2.344
25239W        W78135  11.420   9.865   8.132
25240W        W78136  14.351  14.675   9.750
25241W        W78137  25.879   7.468   2.925
25242W        W78138  33.048  26.724   2.304
25243W        W78139  14.007   4.449   7.986
25244W        W78140  22.617  26.069   7.913
25245W        W78141   5.813  28.133   0.725
25246W        W78142  27.914  11.249   2.394
25247W        W78143  31.175  21.264   0.159
25248W        W78144   9.893  33.379   7.650
25249W        W78145  34.976  33.410   3.698
25250W        W78146   7.423   7.910   7.278
25251W        W78147  24.697   6.810   0.202
25252W        W78148   0.274  19.523   1.958
25253W        W78149  17.888   0.735   0.093
25254W        W78150  31.070  23.057   9.253
25255W        W78151  22.243  29.104   2.117
25256W        W78152  18.488  14.718   8.116
25257W        W78153  13.396  22.272   0.406
25258W        W78154  17.568  15.142   8.558
25259W        W78155  30.537  26.969   9.843
25260W        W78156  23.692  33.039   7.574
25261W        W78157   7.362  31.917   2.098
25262W        W78158   4.692   5.160   3.478
25263W        W78159   3.752   3.728   2.630
25264W        W78160   7.260   3.095   7.622
25265W        W78161   1.950  35.033   1.846
25266W        W78162  28.269  28.603   8.960
25267W        W78163  24.758  19.466   9.686
25268W        W78164  10.470  28.366   0.225
25269W        W78165  13.180  17.003   8.445
25270W        W78166  34.344  16.525   8.294
25271W        W78167  21.728   7.073   0.730
25272W        W78168   5.171  32.372   0.816
25273W        W78169  22.899   9.136   9.549
25274W        W78170  14.794   0.881   1.144
25275W        W78171  10.694   8.797  10.318
25276W        W78172  17.727  26.906   2.769
25277W        W78173  19.943   1.470   3.455
25278W        W78174   3.947   0.411   1.010
25279W        W78175  16.720  23.727   1.438
25280W        W78176  30.934  30.736  10.148
25281W        W78177  28.632  27.456   8.690
25282W        W78178  13.044   0.414   9.872
25283W        W78179   7.800  15.232   9.055
25284W        W78180  28.092   4.115   1.737
25285W        W78181  16.467   0.356   0.314
25286W        W78182  14.206  14.648   1.640
25287W        W78183  25.289  23.059   9.869
25288W        W78184   0.225   7.155   1.321
25289W        W78185   8.529  16.654   0.518
25290W        W78186  11.455  15.177   7.776
25291W        W78187  30.613  19.733   0.242
25292W        W78188   6.111  20.175   2.794
25293W        W78189  23.461  29.629   1.163
25294W        W78190  14.636  21.374   2.436
25295W        W78191  13.787  11.840   8.034
25296W        W78192   9.545  14.829   1.813
25297W        W78193   6.947  30.637   7.698
25298W        W78194  30.133  12.636   9.849
25299W        W78195  27.769  26.794   0.280
25300W        W78196  10.843  10.603   2.112
25301W        W78197  20.525  30.473   3.070
25302W        W78198   2.066  28.542   0.177
25303W        W78199  22.093  19.846   7.708
25304W        W78200   9.833  26.283   2.213
25305W        W78201  20.477  20.826   2.791
25306W        W78202   4.766  22.620   8.379
25307W        W78203  29.874   9.667   0.843
25308W        W78204  16.848  12.733   9.944
25309W        W78205  12.310  21.674   9.270
25310W        W78206  26.182  12.191   0.827
25311W        W78207  12.281  11.608   9.739
25312W        W78208  29.836   7.087   8.449
25313W        W78209  15.694  23.650   9.987
25314W        W78210  29.393   2.939   2.222
25315W        W78211  31.256  33.015   8.497
25316W        W78212  20.678  33.944   8.415
25317W        W78213  19.606  23.054   0.011
25318W        W78214   7.789   0.063   3.255
25319W        W78215   9.352  19.146   7.656
25320W        W78216  11.750  33.005   8.524
25321W        W78217  33.606  20.384   9.240
25322W        W78218   1.635  15.767   8.886
25323W        W78219  26.269  26.337   9.978
25324W        W78220  35.547  19.821   0.741
25325W        W78221  23.490  20.731   2.490
25326W        W78222   2.269  26.190   0.575
25327W        W78223  27.270  18.446   2.944
25328W        W78224  24.426   3.458   1.009
25329W        W78225   3.014  32.505   9.755
25330W        W78226  22.939  11.385   3.132
25331W        W78227  31.211   0.675   8.941
25332W        W78228  31.015  29.083   9.887
25333W        W78229  32.452  11.716   8.761
25334W        W78230  22.232  30.889   2.781
25335W        W78231   7.643  34.085   9.940
25336W        W78232  20.624  24.834   8.416
25337W        W78233   6.937  20.943   9.531
25338W        W78234  22.125  30.309   7.449
25339W        W78235   1.211  22.647   9.244
25340W        W78236  18.818  34.365   8.437
25341W        W78237  20.399  12.505   1.089
25342W        W78238   2.429  13.980   1.930
25343W        W78239   7.390  20.135   1.714
25344W        W78240   5.116   8.197   8.579
25345W        W78241   0.637  14.761   7.869
25346W        W78242  32.810  19.351  10.063
25347W        W78243  25.571  34.499   3.683
25348W        W78244  14.950   5.917   1.293
25349W        W78245   5.884  22.498   1.870
25350W        W78246  19.836  17.574   9.000
25351W        W78247   4.190  29.827   3.784
25352W        W78248  19.121  34.102   9.351
25353W        W78249   2.440  17.073   7.376
25354W        W78250  35.013   9.164   1.182
25355W        W78251  25.977  10.965   8.305
25356W        W78252  26.030  15.430   0.578
25357W        W78253  28.203  19.333   8.286
25358W        W78254  14.722   0.534  10.248
25359W        W78255  10.867  34.558   9.525
25360W        W78256  34.607  22.316   2.436
25361W        W78257  12.443   1.607   7.539
25362W        W78258  13.726  26.511   7.706
25363W        W78259  27.337  28.523   8.647
25364W        W78260   3.024  31.411  10.100
25365W        W78261   2.699  32.993   8.295
25366W        W78262  33.144  24.514   0.252
25367W        W78263  27.049  11.244  10.196
25368W        W78264  28.305  23.727   9.164
25369W        W78265   9.556   6.994   1.441
25370W        W78266  24.076   7.938   9.196
25371W        W78267  25.532   1.801   7.930
25372W        W78268  12.998  17.023   0.925
25373W        W78269  24.247   1.431   0.660
25374W        W78270  33.163  34.477   2.766
25375W        W78271   0.878  13.087   8.951
25376W        W78272  11.733  34.874   8.784
25377W        W78273   4.832  19.117   1.135
25378W        W78274  14.788  30.639   9.335
25379W        W78275   4.823  22.666   7.542
25380W        W78276   4.421   6.247  10.177
25381W        W78277   2.100  22.563   8.572
25382W        W78278  25.251  16.506   0.586
25383W        W78279  10.117   4.380   9.689
25384W        W78280  33.455  12.588   1.366
25385W        W78281  30.401  20.507   0.719
25386W        W78282  27.990   3.915   9.182
25387W        W78283  17.634  32.512   7.753
25388W        W78284  13.069  25.429   8.526
25389W        W78285   1.311  11.435   0.141
25390W        W78286  16.414  29.892   0.063
25391W        W78287  25.752  22.476   2.458
25392W        W78288   1.889  24.110   0.813
25393W        W78289  31.055  28.027   1.354
25394W        W78290   6.804   5.952   9.638
25395W        W78291  19.862  10.109   8.255
25396W        W78292  27.465  17.004   9.614
25397W        W78293   3.238  10.143   1.055
25398W        W78294  31.713  35.942   1.889
25399W        W78295  23.561  12.104   8.917
25400W        W78296   1.173  32.175   9.217
25401W        W78297  17.362  30.228   8.303
25402W        W78298  22.363   1.950   9.730
25403W        W78299  32.081  13.635   8.741
25404W        W78300  35.221   4.250   2.993
25405W        W78301  16.484  19.359   2.076
25406W        W78302  13.808  15.754   3.531
25407W        W78303  22.190  25.154   1.048
25408W        W78304  30.235   3.331   2.762
25409W        W78305  20.637   1.730  10.321
25410W        W78306   7.725  13.867   8.032
25411W        W78307   2.430  17.123   0.814
25412W        W78308   0.654   3.261   1.546
25413W        W78309  12.625  28.116   0.691
25414W        W78310  25.772  30.428   9.454
25415W        W78311  15.535   3.133   7.566
25416W        W78312  14.705  21.033   2.763
25417W        W78313  13.722   2.118   2.020
25418W        W78314  14.943   6.774   8.761
25419W        W78315  21.605  25.670   2.145
25420W        W78316   7.297   8.615   1.948
25421W        W78317  18.960  27.162   7.311
25422W        W78318  16.513   4.295   3.053
25423W        W78319   6.052  11.837   9.925
25424W        W78320  35.268  21.933   3.289
25425W        W78321   3.944  16.711   8.625
25426W        W78322  22.690  17.208   2.844
25427W        W78323  28.356  15.783   2.322
25428W        W78324   9.475  19.693   1.966
25429W        W78325  29.267  25.875   7.463
25430W        W78326  33.872   6.031   0.486
25431W        W78327  33.027   3.157   0.345
25432W        W78328  35.832   8.509   0.859
25433W        W78329  30.292   9.261   9.989
25434W        W78330  33.121  33.601   1.101
25435W        W78331   4.627  22.704   2.022
25436W        W78332  35.044  22.306  10.242
25437W        W78333  21.611  26.949   3.736
25438W        W78334   9.142   3.872   2.134
25439W        W78335  35.792   1.397   8.508
25440W        W78336  30.111   6.176   3.116
25441W        W78337  23.493  19.402   3.201
25442W        W78338  34.392  12.179   9.064
25443W        W78339   5.675  25.619   8.181
25444W        W78340  32.466  32.344   9.985
25445W        W78341  15.224  29.723   9.585
25446W        W78342  10.396  20.820   9.595
25447W        W78343  15.692  18.847   0.626
25448W        W78344  28.995   0.197   2.362
25449W        W78345  11.387   3.846   7.772
25450W        W78346  24.830  13.040  10.002
25451W        W78347   3.152   4.119   8.290
25452W        W78348  26.323   8.717   9.454
25453W        W78349   6.709  26.819   7.820
25454W        W78350  18.501  34.096   9.633
25455W        W78351  24.209   1.032   7.917
25456W        W78352  31.634  11.708   2.838
25457W        W78353  12.751  11.800   7.703
25458W        W78354  17.796   1.889   7.995
25459W        W78355  21.874  22.666   7.931
25460W        W78356  19.032  21.452   1.308
25461W        W78357  21.405   5.120   9.267
25462W        W78358  24.609  27.229   1.332
25463W        W78359   8.608  14.382   2.216
25464W        W78360   0.385  15.762   8.176
25465W        W78361  12.399  15.014   0.228
25466W        W78362   2.945  13.336   9.882
25467W        W78363  15.404  18.411   4.007
25468W        W78364  23.532  34.725   0.390
25469W        W78365  31.597   1.479   0.965
25470W        W78366  15.657  21.395   8.845
25471W        W78367  15.745   5.793   3.181
25472W        W78368  10.383  34.007   3.248
25473W        W78369  23.918  12.128   7.367
25474W        W78370  27.144  16.297   0.018
25475W        W78371   1.459  28.808   1.343
25476W        W78372  22.073  25.827   7.834
25477W        W78373   9.687  17.377   3.202
25478W        W78374  16.980  30.302   1.716
25479W        W78375  23.162  11.154   0.885
25480W        W78376  16.282  12.038   8.395
25481W        W78377  29.615  27.159   2.660
25482W        W78378   1.063   3.930   9.554
25483W        W78379  12.042   4.020   9.291
25484W        W78380  10.378   7.720   9.532
25485W        W78381  26.224  33.218   2.477
25486W        W78382  28.569  11.291   0.744
25487W        W78383  19.695   0.452   1.079
25488W        W78384  23.757  30.714   1.703
25489W        W78385  30.973   3.781   2.652
25490W        W78386  15.431   3.624   8.515
25491W        W78387  11.271  25.466   8.591
25492W        W78388  27.124   1.352   8.773
25493W        W78389  26.024  23.986   8.763
25494W        W78390  15.459  26.220   1.317
25495W        W78391  34.290   6.232   1.978
25496W        W78392   9.275   6.819   0.958
25497W        W78393   6.708  30.580   0.543
25498W        W78394  21.314   9.407   2.603
25499W        W78395  31.426  22.405   9.926
25500W        W78396  19.595  35.469   3.809
25501W        W78397   6.331  13.605   9.764
25502W        W78398  23.348  11.292   0.114
25503W        W78399   9.896  19.337   8.775
25504W        W78400  32.697  13.705   7.545
25505W        W78401  29.237   7.735   8.594
25506W        W78402  34.998   2.803   1.884
25507W        W78403   5.288  14.026   8.742
25508W        W78404  13.718  17.759   9.626
25509W        W78405  15.589   8.028   7.590
25510W        W78406  21.780   8.742   3.074
25511W        W78407  30.809   1.328   3.071
25512W        W78408  34.188   3.347   0.718
25513W        W78409  19.442  25.083   0.957
25514W        W78410   1.170  23.299   8.315
25515W        W78411  11.020   6.905   0.790
25516W        W78412  14.608  19.580   9.980
25517W        W78413  28.775  10.976   7.846
25518W        W78414  28.990   9.304   8.172
25519W        W78415   1.267  12.636   8.763
25520W        W78416   3.202  33.126   8.190
25521W        W78417  27.616  27.798   9.693
25522W        W78418  35.126   3.121   9.844
25523W        W78419  18.911   6.859   0.371
25524W        W78420  32.039  24.787   8.634
25525W        W78421  25.782  14.342   3.351
25526W        W78422  17.044  22.010   2.152
25527W        W78423  34.604  28.558   1.479
25528W        W78424  12.422   8.730   9.196
25529W        W78425   7.570  31.041   8.697
25530W        W78426  24.064  17.361   3.552
25531W        W78427   7.715  10.024   1.763
25532W        W78428   9.093   6.775   9.153
25533W        W78429  27.453  26.600   7.164
25534W        W78430  34.024   6.491   2.677
25535W        W78431  34.759  35.281   9.717
25536W        W78432  22.108  20.822   1.267
25537W        W78433  16.914  35.048   9.092
25538W        W78434  25.668   1.587   0.022
25539W        W78435  23.794  11.645   0.908
25540W        W78436  11.531  31.314   8.069
25541W        W78437  29.418  34.029   2.386
25542W        W78438  10.395   1.175   0.588
25543W        W78439  28.451   9.356   0.259
25544W        W78440  24.869  21.052   3.503
25545W        W78441  24.712   6.451   8.767
25546W        W78442  17.542  35.856   2.194
25547W        W78443  10.144  15.657   8.750
25548W        W78444  28.304   6.464   2.545
25549W        W78445  10.036  23.597   9.392
25550W        W78446   7.150   3.990   7.573
25551W        W78447  34.943  26.514   7.682
25552W        W78448  26.553  35.151   1.214
25553W        W78449  31.400  35.045   0.293
25554W        W78450  33.289  27.054   0.284
25555W        W78451  20.638  32.395   9.519
25556W        W78452  23.538   9.978   9.880
25557W        W78453  25.992  23.150   1.421
25558W        W78454   7.539   5.321   8.964
25559W        W78455  26.688   0.999   7.694
25560W        W78456   1.313  26.278   3.230
25561W        W78457  20.020  31.221   3.105
25562W        W78458   8.198  15.959   8.052
25563W        W78459   2.580  10.146   0.402
25564W        W78460  33.662  11.244   8.495
25565W        W78461  35.291  15.988   2.563
25566W        W78462   4.099  25.809   9.112
25567W        W78463  14.471   6.850   8.443
25568W        W78464  12.040   0.925   9.287
25569W        W78465   5.254  12.095   8.997
25570W        W78466  17.937  19.020   8.833
25571W        W78467  28.162   0.044   1.791
25572W        W78468   9.323  12.618   3.388
25573W        W78469  24.332  16.708   8.003
25574W        W78470  32.311   8.113   2.738
25575W        W78471  20.467   4.812   9.451
25576W        W78472  18.065  25.074  10.016
25577W        W78473  20.522  21.603   9.010
25578W        W78474  14.083   5.055   8.870
25579W        W78475   6.505  17.496   0.282
25580W        W78476  34.869  19.279   3.168
25581W        W78477  13.565  13.690   1.446
25582W        W78478  35.474  11.464   0.334
25583W        W78479  10.674  24.055   2.103
25584W        W78480  12.363  32.258   9.935
25585W        W78481  11.734  27.393   8.712
25586W        W78482  20.439  30.293   8.552
25587W        W78483  16.922   9.434   8.748
25588W        W78484  14.236  15.393  10.266
25589W        W78485  29.668  11.715   2.070
25590W        W78486   0.719  27.656   0.847
25591W        W78487  32.993  17.090  10.038
25592W        W78488  14.365   0.770   2.557
25593W        W78489  17.213   6.741   3.234
25594W        W78490  24.933  26.591   2.489
25595W        W78491  30.386  26.872   3.115
25596W        W78492  29.262   7.612   8.049
25597W        W78493  25.338  34.603   1.555
25598W        W78494  28.952  26.822   8.067
25599W        W78495   1.864   3.316   0.266
25600W        W78496   1.370  20.763   3.024
25601W        W78497  11.874  28.494   8.887
25602W        W78498   1.368  26.059   8.008
25603W        W78499  20.130  25.762   1.282
25604W        W78500  25.371   3.236   7.981
25605W        W78501   2.375   5.259   7.684
25606W        W78502  35.822   9.888   2.859
25607W        W78503  22.997   6.629   1.789
25608W        W78504   7.740   9.845   2.925
25609W        W78505   3.287   0.377   8.258
25610W        W78506   5.061  12.296   0.436
25611W        W78507  34.865   2.153   8.244
25612W        W78508   9.161  10.994   1.107
25613W        W78509   9.419   6.664   2.888
25614W        W78510   9.083   8.048   0.241
25615W        W78511  15.165   5.037   8.000
25616W        W78512  31.437  28.865   3.749
25617W        W78513  23.677  23.561   1.881
25618W        W78514  29.812   7.178   2.936
25619W        W78515  10.988  19.994   2.178
25620W        W78516   7.288   7.771   2.690
25621W        W78517  35.905  13.787   1.361
25622W        W78518   1.348  34.939   2.928
25623W        W78519  28.145  27.186   9.452
25624W        W78520  25.778  13.054   9.414
25625W        W78521  12.215   5.605   0.350
25626W        W78522  29.502   9.719   7.530
25627W        W78523  13.264  21.439   0.613
25628W        W78524   0.188   6.047   8.957
25629W        W78525  10.130   2.082   7.670
25630W        W78526   2.330   0.639   8.213
25631W        W78527   0.744  31.563   1.895
25632W        W78528   8.280  20.134   8.047
25633W        W78529   2.551  32.843   9.109
25634W        W78530  22.151  10.800   2.144
25635W        W78531  22.241   5.586   0.739
25636W        W78532  14.185   3.177   8.573
25637W        W78533   4.050  21.197   9.167
25638W        W78534  10.343  10.255   2.576
25639W        W78535   9.426  34.856   0.412
25640W        W78536  14.944  12.833   9.021
25641W        W78537  22.197  32.135   0.467
25642W        W78538   9.990   9.628   8.173
25643W        W78539  33.216  19.695  10.151
25644W        W78540  34.754  21.625   0.629
25645W        W78541  23.926  12.472   1.375
25646W        W78542  11.747  23.742   6.797
25647W        W78543  16.844  31.269   9.317
25648W        W78544  35.734  11.722   2.408
25649W        W78545  16.044  29.463   2.678
25650W        W78546   3.048  14.745   9.029
25651W        W78547  10.547   6.659   0.532
25652W        W78548  24.621  20.490   8.179
25653W        W78549  35.513  13.469   2.099
25654W        W78550  21.056  21.667   1.523
25655W        W78551  24.982   1.567   7.604
25656W        W78552  26.209  24.107   3.128
25657W        W78553   9.019  29.146   0.589
25658W        W78554  18.559   9.026   9.386
25659W        W78555  18.173   7.001   9.195
25660W        W78556  29.873  22.030   1.811
25661W        W78557  16.343  35.132   1.847
25662W        W78558  35.079  26.331   1.891
25663W        W78559  13.717  32.604   3.262
25664W        W78560  33.358   5.004  10.005
25665W        W78561  34.032  24.814   2.308
25666W        W78562  10.871  30.248   0.961
25667W        W78563   1.127  34.665   1.578
25668W        W78564  32.033   3.793   9.729
25669W        W78565  24.954  29.243   7.514
25670W        W78566   9.866  11.530   0.473
25671W        W78567  24.008   0.687   8.282
25672W        W78568   9.682   4.040   8.345
25673W        W78569   1.822  19.613   2.866
25674W        W78570  18.583   5.496   3.074
25675W        W78571   1.915  27.375   0.813
25676W        W78572  27.453  17.494   9.664
25677W        W78573  15.006  30.187   3.128
25678W        W78574  30.844  35.656   9.475
25679W        W78575  30.006   9.938   7.722
25680W        W78576   3.105   4.936   9.121
25681W        W78577  31.708  31.782   1.821
25682W        W78578  22.065  17.795   1.235
25683W        W78579   9.771  23.948   7.219
25684W        W78580   5.750   6.335   0.921
25685W        W78581  16.007   3.582   8.964
25686W        W78582   2.916  33.149   1.676
25687W        W78583   2.532  13.481   3.200
25688W        W78584  10.671  21.703   0.920
25689W        W78585   3.574  28.008   9.580
25690W        W78586   8.198   0.544   1.100
25691W        W78587  12.884  33.157   2.237
25692W        W78588  21.023  13.541   2.836
25693W        W78589  27.938  21.255   2.840
25694W        W78590   4.367  34.035   2.282
25695W        W78591   4.390  18.434   7.664
25696W        W78592  25.012   6.193   9.487
25697W        W78593  30.598  32.390   3.294
25698W        W78594  35.510  17.689   3.387
25699W        W78595  27.438  22.162   7.930
25700W        W78596  27.443   9.906  10.033
25701W        W78597  32.655   8.549   9.651
25702W        W78598   8.134   3.004   0.762
25703W        W78599  17.585  15.599   2.231
25704W        W78600  31.211  26.724   9.286
25705W        W78601  21.639   7.037   3.011
25706W        W78602  18.634  29.942   0.139
25707W        W78603   8.077  24.970   1.815
25708W        W78604  14.985  33.124   0.974
25709W        W78605   6.244  13.663   9.256
25710W        W78606   1.403   7.395   9.855
25711W        W78607  27.663  21.011   9.578
25712W        W78608  22.485   4.287   2.272
25713W        W78609   4.097  14.528   8.102
25714W        W78610   3.346  18.449   2.500
25715W        W78611   8.097   5.577   2.373
25716W        W78612   7.787  35.617  10.235
25717W        W78613   3.055   3.604   0.642
25718W        W78614  34.228  27.588   1.788
25719W        W78615  20.159   5.266   2.163
25720W        W78616   7.463  20.893   2.473
25721W        W78617  21.676  16.022  10.139
25722W        W78618  19.684   1.485   1.209
25723W        W78619  30.351  21.843   0.591
25724W        W78620  26.431  11.630   3.222
25725W        W78621  27.511  21.876   0.361
25726W        W78622   2.359  33.957   3.172
25727W        W78623   5.160  25.649   1.062
25728W        W78624  26.059  27.069   2.526
25729W        W78625  25.545  21.229  10.038
25730W        W78626  27.842  35.782   0.463
25731W        W78627  10.597  27.017   8.165
25732W        W78628  22.602   2.969   7.670
25733W        W78629   3.106  26.403   8.463
25734W        W78630  19.489  26.333   1.488
25735W        W78631   7.750  19.534   7.892
25736W        W78632   9.784   1.857   2.092
25737W        W78633  22.432  35.601   9.846
25738W        W78634  30.469   6.969   7.916
25739W        W78635  21.538  15.922   1.072
25740W        W78636   0.700  22.907  10.247
25741W        W78637   6.339  35.513   9.436
25742W        W78638   1.131  15.977   3.286
25743W        W78639  23.195   1.809   1.237
25744W        W78640   4.158  12.129   8.788
25745W        W78641  29.860  31.834   8.501
25746W        W78642  34.790  10.675   3.172
25747W        W78643   3.449   2.199   1.930
25748W        W78644   6.920  10.711   8.078
25749W        W78645  19.450  16.662   1.530
25750W        W78646   2.503   8.119   8.473
25751W        W78647  34.670  18.522   9.854
25752W        W78648   0.865  15.413   4.055
25753W        W78649  25.197  33.049   0.875
25754W        W78650   8.520  32.747   8.358
25755W        W78651  35.870   3.320   1.233
25756W        W78652  33.845  31.551   3.596
25757W        W78653  12.291  28.640   7.939
25758W        W78654  18.104  30.717   9.655
25759W        W78655   1.962   1.672  10.058
25760W        W78656  11.304  33.714   0.174
25761W        W78657  29.031   8.012   7.734
25762W        W78658  10.685  22.458   8.262
25763W        W78659  25.102   4.460   1.665
25764W        W78660  10.620   5.321   1.583
25765W        W78661  13.135   4.113   8.091
25766W        W78662  36.011  12.155  10.253
25767W        W78663  16.801  30.672   9.190
25768W        W78664   0.201   3.623   1.495
25769W        W78665   4.009  25.175   1.882
25770W        W78666  13.473  12.397   1.382
25771W        W78667  28.529  26.496   9.545
25772W        W78668  12.311  18.564   2.027
25773W        W78669  23.257  11.756   8.092
25774W        W78670  29.490  35.286   8.713
25775W        W78671  14.983  34.213   8.576
25776W        W78672   7.890  14.830   9.435
25777W        W78673  27.289  12.468   3.874
25778W        W78674  12.546  30.935   0.937
25779W        W78675  14.236   5.846   0.791
25780W        W78676  25.561  17.278   3.559
25781W        W78677   7.042  18.276   7.969
25782W        W78678  35.731  29.911   2.486
25783W        W78679   1.737  30.341  10.127
25784W        W78680  22.167  11.530   0.635
25785W        W78681   3.567  28.769   2.686
25786W        W78682   9.136   7.597   8.498
25787W        W78683   9.179  12.215   8.120
25788W        W78684   2.294  23.381   0.340
25789W        W78685  26.113   7.449   9.040
25790W        W78686  10.066  29.342   9.124
25791W        W78687  27.963  19.537   9.475
25792W        W78688  22.755  24.469   2.450
25793W        W78689  20.946   0.498   8.245
25794W        W78690   7.064  13.267   1.984
25795W        W78691  12.288   8.056   2.353
25796W        W78692  15.260   5.043   0.811
25797W        W78693   1.527  26.560   8.756
25798W        W78694  24.415  34.650   9.296
25799W        W78695   7.774   5.286   1.471
25800W        W78696   0.485   9.114   1.307
25801W        W78697  28.448   6.686   8.737
25802W        W78698  26.527   0.990   9.992
25803W        W78699  15.167  12.725   1.495
25804W        W78700  29.248   1.721   1.093
25805W        W78701   2.668   0.190   8.956
25806W        W78702  19.770  25.516   7.798
25807W        W78703   4.364  35.930  10.117
25808W        W78704  25.299  23.172   2.855
25809W        W78705   3.463   9.991   1.879
25810W        W78706  35.596  27.568   3.455
25811W        W78707  30.786  31.813   0.330
25812W        W78708   1.967   8.923  10.109
25813W        W78709  15.599  20.199   8.331
25814W        W78710  35.907   6.643   0.175
25815W        W78711  21.181  25.585   7.442
25816W        W78712   9.125  30.285   0.216
25817W        W78713  26.278  33.117   7.406
25818W        W78714  32.374   2.849   2.017
25819W        W78715  24.962  11.034   7.579
25820W        W78716   0.868  35.073   3.500
25821W        W78717   9.498  28.370   1.539
25822W        W78718  33.359  33.168   3.443
25823W        W78719   4.266   8.570   8.492
25824W        W78720  29.684  34.812  10.286
25825W        W78721  26.305  32.990   7.949
25826W        W78722   6.049   6.536   7.124
25827W        W78723  18.285  25.885   1.942
25828W        W78724  11.835  29.056   8.239
25829W        W78725   0.045   6.660   1.233
25830W        W78726  21.440  30.862   1.802
25831W        W78727   7.179   5.349   9.359
25832W        W78728   8.107  18.970   9.906
25833W        W78729  23.175   0.607   9.499
25834W        W78730   1.750   1.680   9.110
25835W        W78731   0.611  28.437   8.285
25836W        W78732  15.933  35.066   7.639
25837W        W78733  10.136  16.310   2.400
25838W        W78734  21.841  28.995   2.451
25839W        W78735  19.620  19.396   8.743
25840W        W78736  25.714   4.327   2.630
25841W        W78737  18.600   4.567   0.603
25842W        W78738   5.074  17.036   1.491
25843W        W78739  11.378  21.690   9.610
25844W        W78740   4.779  25.519   1.444
25845W        W78741  33.931  22.718   0.876
25846W        W78742  35.656   5.557   8.672
25847W        W78743   0.443  24.562   8.586
25848W        W78744  33.239  26.437   9.276
25849W        W78745  17.015   3.965   8.664
25850W        W78746  27.297  21.587  10.268
25851W        W78747  26.655  18.778   0.209
25852W        W78748  13.026  20.216   1.301
25853W        W78749   5.310  12.351  10.014
25854W        W78750   2.140  14.994   8.832
25855W        W78751  15.748  34.562   7.588
25856W        W78752  10.444   0.866   9.311
25857W        W78753   1.547   5.767   8.516
25858W        W78754  20.704  26.365   1.906
25859W        W78755  32.726   8.208   6.978
25860W        W78756  16.199  26.081   0.601
25861W        W78757   2.915  28.086  10.335
25862W        W78758  17.279   1.863   8.088
25863W        W78759  28.063  27.257   3.476
25864W        W78760   5.787   8.490   2.367
25865W        W78761   5.971  12.977  10.190
25866W        W78762  35.166   2.155   9.083
25867W        W78763  17.635  15.552   1.147
25868W        W78764  22.089  17.197   8.787
25869W        W78765   6.283  31.736   7.253
25870W        W78766  23.782   0.560   8.744
25871W        W78767   0.309  23.388   8.741
25872W        W78768  30.003  25.098   0.002
25873W        W78769  19.120   2.146  10.130
25874W        W78770   5.283  15.246   3.259
25875W        W78771  34.050  34.286   8.427
25876W        W78772  12.878   4.521   1.787
25877W        W78773  22.632  24.891   0.008
25878W        W78774  28.101  19.935   3.354
25879W        W78775   1.128  17.200   3.317
25880W        W78776   8.626  34.915   8.438
25881W        W78777  21.363  12.347  10.055
25882W        W78778   6.582  25.053   1.977
25883W        W78779   0.236  30.725   8.517
25884W        W78780  16.615  31.727   8.424
25885W        W78781  35.648  35.538  10.172
25886W        W78782  26.336  21.050   8.959
25887W        W78783   1.750  23.268  10.065
25888W        W78784  31.758  13.743   1.511
25889W        W78785  18.726  19.157   3.531
25890W        W78786  23.244   8.592   1.945
25891W        W78787  24.298   9.380   9.171
25892W        W78788  33.821  14.760   0.916
25893W        W78789  26.339  20.929   2.443
25894W        W78790  35.836  13.229   9.331
25895W        W78791   6.717  16.244   1.401
25896W        W78792   0.314  29.283   3.486
25897W        W78793  35.907  23.024  10.159
25898W        W78794   9.682  10.959   8.100
25899W        W78795  20.221  15.294   3.329
25900W        W78796  13.415  27.331   7.589
25901W        W78797   7.047  13.590   0.751
25902W        W78798  24.008   7.990   8.697
25903W        W78799   5.946   5.210   7.937
25904W        W78800  22.898   7.643   1.453
25905W        W78801  26.820  20.237   8.088
25906W        W78802  21.729  29.159   8.001
25907W        W78803  12.869  27.131   0.859
25908W        W78804   4.790  18.243   7.466
25909W        W78805   4.976  30.052   1.005
25910W        W78806  27.208  34.913   8.582
25911W        W78807  23.951  12.829   8.414
25912W        W78808   8.668   1.705  10.092
25913W        W78809  31.531  30.221   0.830
25914W        W78810  28.603  31.990   0.591
25915W        W78811  26.924  33.316   3.017
25916W        W78812  16.995  10.449   9.519
25917W        W78813  15.071   1.823   2.156
25918W        W78814  27.156  12.479   7.643
25919W        W78815  13.375   7.602   1.785
25920W        W78816  22.848  14.210  10.110
25921W        W78817  24.083   8.226   0.624
25922W        W78818   2.480  34.315   1.489
25923W        W78819  14.746  15.359   2.989
25924W        W78820  19.521   4.073   7.115
25925W        W78821  21.957  19.195   3.777
25926W        W78822   1.215  34.135   0.673
25927W        W78823   6.110  28.050   8.910
25928W        W78824  12.382  28.464   0.971
25929W        W78825  25.669  23.924   8.081
25930W        W78826  32.668  16.721   0.445
25931W        W78827  29.194   6.163   9.776
25932W        W78828  23.650  20.249   1.066
25933W        W78829  14.289   9.991   9.180
25934W        W78830  33.018  19.934   3.410
25935W        W78831  30.354  28.126   9.152
25936W        W78832  21.540   4.422   9.816
25937W        W78833  33.790   7.538   1.103
25938W        W78834  10.093  13.930   2.285
25939W        W78835  20.956  31.457   0.161
25940W        W78836  21.518  20.741   3.064
25941W        W78837  18.283  34.394   3.022
25942W        W78838   3.472   6.002   0.959
25943W        W78839  19.308   2.927   7.811
25944W        W78840  20.535  22.272   1.645
25945W        W78841  10.600  26.639   1.870
25946W        W78842  18.655   7.296   1.774
25947W        W78843  29.655  12.986   0.556
25948W        W78844  28.346  18.427  10.261
25949W        W78845   3.395   7.244   0.177
25950W        W78846  25.854  29.294   2.329
25951W        W78847   3.669  24.986   9.203
25952W        W78848  21.864   3.559   2.487
25953W        W78849  33.324  23.442   7.483
25954W        W78850   2.801  14.720   0.027
25955W        W78851  10.421  33.747   9.491
25956W        W78852  17.765  16.046   2.459
25957W        W78853  17.649  27.965   1.916
25958W        W78854  27.430  10.658   1.441
25959W        W78855  20.693  21.833   0.411
25960W        W78856   1.339  33.314   8.105
25961W        W78857  12.739  28.324   9.233
25962W        W78858  28.782   4.763   1.614
25963W        W78859  17.668   9.382   1.548
25964W        W78860  11.830  14.282   8.759
25965W        W78861  14.427  30.451   2.469
25966W        W78862  14.119   7.117   9.261
25967W        W78863  13.806   5.549   8.926
25968W        W78864   6.019  30.891   3.295
25969W        W78865  29.631  30.122   1.816
25970W        W78866  17.380   7.912   9.649
25971W        W78867  17.033  32.419  10.250
25972W        W78868   3.041  21.710   1.091
25973W        W78869  34.937   5.804   0.915
25974W        W78870  17.023  28.657   0.319
25975W        W78871  33.237  13.233   2.816
25976W        W78872  12.377  16.469   7.764
25977W        W78873  33.528   6.373   9.261
25978W        W78874  34.337  13.478  10.208
25979W        W78875  24.584  32.747   8.005
25980W        W78876   2.305  23.695   3.268
25981W        W78877  23.789  11.617   1.579
25982W        W78878   6.027   8.136   8.192
25983W        W78879  27.860  17.738   2.146
25984W        W78880   9.861  13.712   1.873
25985W        W78881  15.856  20.644   2.251
25986W        W78882  14.137  15.768   3.069
25987W        W78883   0.297  10.807   8.008
25988W        W78884  29.566  25.826   9.298
25989W        W78885  34.458  33.009   9.746
25990W        W78886  27.312  15.120   8.631
25991W        W78887   8.978  17.629   9.570
25992W        W78888  27.696   8.573   8.351
25993W        W78889  35.328   3.194   8.915
25994W        W78890   6.079  22.797   9.691
25995W        W78891  35.734   9.404   1.140
25996W        W78892   8.318   6.475   7.560
25997W        W78893   6.260   4.893   9.814
25998W        W78894  27.534  24.904   8.723
25999W        W78895   8.700   8.840   1.691
26000W        W78896  22.147  28.329   8.074
26001W        W78897  10.028   9.380   1.267
26002W        W78898  16.707  13.211   2.841
26003W        W78899   4.561  22.858   0.671
26004W        W78900   7.955  13.031   8.313
26005W        W78901  12.940   0.014   8.286
26006W        W78902  23.418  29.073   0.587
26007W        W78903  12.693  26.280   0.687
26008W        W78904  33.010  21.479   0.904
26009W        W78905   1.165  25.345   3.056
26010W        W78906  20.741   2.452   3.853
26011W        W78907   0.660  30.234   1.226
26012W        W78908  27.190  19.424   1.398
26013W        W78909  30.617  26.976   7.342
26014W        W78910  11.675   7.178   8.258
26015W        W78911  19.232   8.986   7.612
26016W        W78912  21.362  29.780   2.706
26017W        W78913   7.215  15.283   0.398
26018W        W78914  30.756   8.099   3.575
26019W        W78915  23.228  27.426   1.437
26020W        W78916  32.383  22.527   7.464
26021W        W78917  10.119   0.055   1.574
26022W        W78918  14.390  34.384   9.511
26023W        W78919  22.705  33.413   8.742
26024W        W78920  19.688   7.877   2.826
26025W        W78921  15.966  16.176   2.484
26026W        W78922  12.221  17.571   1.025
26027W        W78923  16.909   3.117   0.504
26028W        W78924   3.526  12.869   4.394
26029W        W78925   7.016   6.133   2.571
26030W        W78926  16.206  24.339   8.636
26031W        W78927  24.009  33.123   1.869
26032W        W78928  17.118  27.645   0.783
26033W        W78929   0.471  18.131   1.843
26034W        W78930  16.716  23.654   9.642
26035W        W78931  32.064  14.426   9.462
26036W        W78932  31.450   5.014   1.709
26037W        W78933  10.626  14.656   8.488
26038W        W78934   8.276   9.747   7.248
26039W        W78935   5.974  17.331   9.814
26040W        W78936  13.249   2.198   7.336
26041W        W78937  30.258  34.116   1.947
26042W        W78938  30.686  15.673  10.042
26043W        W78939  12.129   2.472  10.296
26044W        W78940  24.505   1.902   1.542
26045W        W78941  27.696  26.548   7.887
26046W        W78942   1.382  35.743   1.428
26047W        W78943   5.956  25.860   0.763
26048W        W78944  34.492  32.969   7.566
26049W        W78945   6.252  10.068   1.490
26050W        W78946  13.158  33.747   8.254
26051W        W78947  17.080  13.568   9.637
26052W        W78948  23.558  25.337   0.290
26053W        W78949  33.833  26.786   0.979
26054W        W78950  34.012   0.625   8.010
26055W        W78951  14.774  34.718   9.297
26056W        W78952  22.546   7.081   8.829
26057W        W78953  10.373  11.890   1.299
26058W        W78954  13.584  11.930   0.499
26059W        W78955  17.376   4.457   2.132
26060W        W78956  30.608   4.600   0.661
26061W        W78957   6.151  26.809   8.796
26062W        W78958  16.370  11.405   9.151
26063W        W78959   2.962   1.426   2.481
26064W        W78960  10.863  29.489   3.183
26065W        W78961  14.640  26.462   2.741
26066W        W78962   5.879  20.844   9.307
26067W        W78963  30.910   8.465   9.939
26068W        W78964  10.650   4.459   7.639
26069W        W78965  32.565  22.835   2.477
26070W        W78966  26.647  31.411   7.383
26071W        W78967   0.473  22.693   3.547
26072W        W78968  16.546  34.007   2.432
26073W        W78969  26.558  17.768   2.201
26074W        W78970   3.339  13.378   9.467
26075W        W78971  34.902  25.964   8.873
26076W        W78972   2.497   7.339   8.762
26077W        W78973   0.868  17.781   0.141
26078W        W78974  30.286   9.001   1.012
26079W        W78975  12.246  32.416   2.615
26080W        W78976  27.931  14.393   0.394
26081W        W78977  31.767  26.478   2.629
26082W        W78978  17.555  19.712   8.567
26083W        W78979  23.284  32.449   8.509
26084W        W78980  10.393  13.800   3.101
26085W        W78981  24.906   0.250   1.698
26086W        W78982  11.107  23.780   1.921
26087W        W78983  15.524  24.498   9.960
26088W        W78984  19.838   1.555   8.780
26089W        W78985  10.772   6.464   0.981
26090W        W78986  12.077   3.429   6.950
26091W        W78987  21.449   8.744   0.446
26092W        W78988  35.400  24.768   8.761
26093W        W78989   4.536  31.280   8.289
26094W        W78990   1.992  26.729   2.913
26095W        W78991   0.347  17.600   2.049
26096W        W78992  15.014  27.571   8.858
26097W        W78993  19.363  33.094   8.554
26098W        W78994  21.009  18.591   2.568
26099W        W78995  23.371  19.322   2.358
26100W        W78996   5.284  13.400   2.086
26101W        W78997   9.688  25.838   8.405
26102W        W78998  31.828  33.543   2.612
26103W        W78999  13.546  18.351  10.228
26104W        W79000  28.269  33.741   0.571
26105W        W79001  21.609  22.403   1.403
26106W        W79002  20.185  11.897   1.559
26107W        W79003  25.911   8.735  10.219
26108W        W79004   5.843  27.604   7.977
26109W        W79005   1.951  19.310  10.303
26110W        W79006  25.476  20.204   8.524
26111W        W79007  11.731  23.224   2.522
26112W        W79008   4.015  20.136   8.450
26113W        W79009  32.864  30.190   3.441
26114W        W79010  26.947   8.200   7.632
26115W        W79011  23.627   0.094   0.517
26116W        W79012  35.577  34.411   0.759
26117W        W79013  25.793  20.765   7.588
26118W        W79014   5.443  13.380   8.504
26119W        W79015  23.258   0.666   8.710
26120W        W79016   1.948   7.591   8.519
26121W        W79017  33.528  23.068   9.536
26122W        W79018  30.950  19.528   2.355
26123W        W79019  33.682   3.801  10.231
26124W        W79020  33.164  13.446   3.296
26125W        W79021  33.027  11.884   9.478
26126W        W79022   2.491  29.392   0.477
26127W        W79023  11.655  29.185   1.054
26128W        W79024  11.259   6.199   0.948
26129W        W79025  30.944  26.207   0.911
26130W        W79026   7.413  30.340   2.125
26131W        W79027  30.617   9.918   0.858
26132W        W79028   7.117  11.459  10.032
26133W        W79029  15.220  32.519   9.263
26134W        W79030  34.577   5.386   9.217
26135W        W79031  22.465  28.069   1.485
26136W        W79032  11.520   6.823   2.189
26137W        W79033  16.675  15.121   0.079
26138W        W79034   4.628  25.949   8.689
26139W        W79035  25.839  22.235   9.951
26140W        W79036  23.449   6.682   8.664
26141W        W79037  18.970  19.580   2.798
26142W        W79038  12.787  18.930   9.805
26143W        W79039  35.801  29.165   3.469
26144W        W79040  20.374  11.541   3.820
26145W        W79041   2.938  26.771   2.342
26146W        W79042  15.518  21.593   2.394
26147W        W79043   3.937  23.409   1.047
26148W        W79044  32.388  10.312   8.154
26149W        W79045  16.241  19.785   7.586
26150W        W79046  21.675  29.462   3.452
26151W        W79047  31.752  20.068   4.050
26152W        W79048  10.182   9.274   8.594
26153W        W79049   3.199   0.862   8.466
26154W        W79050  26.530  22.436   8.876
26155W        W79051  31.308  16.416   8.962
26156W        W79052   7.352  32.140   7.691
26157W        W79053   1.803  18.941   9.961
26158W        W79054  25.261   0.159   2.630
26159W        W79055  11.263  28.067   8.538
26160W        W79056  12.859  16.932   1.777
26161W        W79057  10.218  34.596   0.821
26162W        W79058  10.010  28.381   0.332
26163W        W79059   8.906  25.686   2.765
26164W        W79060  27.142  34.222   2.217
26165W        W79061   0.351   2.076   8.788
26166W        W79062  33.257  29.868   3.519
26167W        W79063  12.339  28.724   0.454
26168W        W79064   7.877  33.079   3.387
26169W        W79065   4.452  12.007   1.219
26170W        W79066  30.272  29.156   1.167
26171W        W79067  13.625  35.520   9.775
26172W        W79068  14.118   8.979   8.012
26173W        W79069  20.915   7.432   2.918
26174W        W79070  16.766   1.999   0.902
26175W        W79071  12.935  34.887   1.596
26176W        W79072  20.581  24.616   0.989
26177W        W79073  33.227  10.297   8.586
26178W        W79074   0.383   3.341   2.384
26179W        W79075  19.184   1.938   8.889
26180W        W79076  35.010   6.672   0.334
26181W        W79077  33.627   2.670   7.824
26182W        W79078   3.914  34.909   1.376
26183W        W79079   3.190  31.476   2.773
26184W        W79080  27.269  35.765   1.056
26185W        W79081  26.692  33.248   2.267
26186W        W79082  28.619  12.260   0.939
26187W        W79083   0.448   2.041   8.195
26188W        W79084   2.369  18.073   0.391
26189W        W79085  23.295   1.563   9.765
26190W        W79086   0.456  23.970   2.489
26191W        W79087  18.841  21.226   9.600
26192W        W79088  22.846  31.432   1.727
26193W        W79089  16.462   6.547   1.536
26194W        W79090  32.510   8.000   1.201
26195W        W79091  13.977   1.864   9.405
26196W        W79092  17.696  34.810   2.668
26197W        W79093   4.737   8.060   2.139
26198W        W79094   5.150   1.676   1.739
26199W        W79095  20.754  18.330   1.946
26200W        W79096  15.772  26.707   2.431
26201W        W79097  18.808   4.650   0.058
26202W        W79098  32.517   0.577   1.463
26203W        W79099   2.724  33.150   3.386
26204W        W79100  25.084  14.715   8.551
26205W        W79101  11.472  10.051   0.825
26206W        W79102  21.370  26.768   0.752
26207W        W79103  16.335  17.894   3.229
26208W        W79104  26.871  18.632   1.618
26209W        W79105  36.012   7.511   1.646
26210W        W79106   4.828  18.597   0.982
26211W        W79107  12.621  10.895   7.380
26212W        W79108  22.029  24.312   9.159
26213W        W79109  11.365   3.610   8.743
26214W        W79110   4.248  14.722   0.292
26215W        W79111   8.461  25.652   9.881
26216W        W79112   5.662   7.858   1.856
26217W        W79113   0.324  31.129   0.294
26218W        W79114  35.615  16.261  10.219
26219W        W79115   4.973  27.119   7.808
26220W        W79116  19.451   5.810   9.179
26221W        W79117  32.182   0.479   7.840
26222W        W79118   6.137  11.645   1.816
26223W        W79119  34.871  10.550   2.674
26224W        W79120   3.312   5.560   2.548
26225W        W79121  32.613   9.153   0.444
26226W        W79122   1.587  31.402   0.920
26227W        W79123  33.460   9.982   0.991
26228W        W79124   8.311  20.179   9.644
26229W        W79125  24.225   5.896   9.393
26230W        W79126  28.078  32.790  10.293
26231W        W79127  13.689   2.251   7.610
26232W        W79128  16.860  25.710   2.268
26233W        W79129  10.880  25.070   7.318
26234W        W79130  28.054   1.010   3.185
26235W        W79131   3.007  27.609  10.335
26236W        W79132  27.740  28.005   8.742
26237W        W79133  15.599  21.959   3.103
26238W        W79134   3.646   5.045   9.116
26239W        W79135  23.828  28.084   1.298
26240W        W79136  24.871   2.860   8.826
26241W        W79137  30.361  27.675   0.077
26242W        W79138  13.731  28.841   7.095
26243W        W79139  15.448  33.089   8.827
26244W        W79140  34.745   3.074  10.119
26245W        W79141  33.427  15.491   1.742
26246W        W79142  17.290  10.010   8.080
26247W        W79143  24.863  33.909   9.620
26248W        W79144  21.265  13.432   1.844
26249W        W79145  27.146  11.352   2.511
26250W        W79146  33.261  23.867   1.656
26251W        W79147  33.391   6.477   9.823
26252W        W79148  22.185  23.119   2.380
26253W        W79149  32.224  16.241   9.375
26254W        W79150  32.519  28.908   8.615
26255W        W79151  14.962  32.310   8.375
26256W        W79152   0.042   5.961   8.479
26257W        W79153  18.745  25.978   8.428
26258W        W79154   6.316  29.150   7.494
26259W        W79155   1.945  33.242   2.897
26260W        W79156  35.058   7.708   1.181
26261W        W79157  11.139   1.771   0.946
26262W        W79158  32.900  14.070   0.063
26263W        W79159  18.122  31.736   8.362
26264W        W79160   8.296  10.084   9.831
26265W        W79161  27.672  12.308   2.023
26266W        W79162   6.290  28.113   3.547
26267W        W79163  20.865  16.803   9.572
26268W        W79164   4.891  10.645   1.135
26269W        W79165  21.417  15.718   2.095
26270W        W79166  17.972  34.235   1.051
26271W        W79167  26.490  32.011  10.307
26272W        W79168  11.638   4.002   3.400
26273W        W79169  29.708  19.808   9.597
26274W        W79170   8.388  13.306   0.640
26275W        W79171  16.476   3.284   8.760
26276W        W79172   9.714  32.843   1.492
26277W        W79173  23.800   0.480   2.849
26278W        W79174  26.553  33.244   9.471
26279W        W79175  18.308   4.184   9.064
26280W        W79176  32.839  12.922   7.955
26281W        W79177  15.958  29.631   0.076
26282W        W79178  24.851  19.329   2.503
26283W        W79179  31.675   9.833   7.245
26284W        W79180   2.248  28.923   9.991
26285W        W79181   1.626   0.498   1.720
26286W        W79182  15.384  12.055   9.118
26287W        W79183  18.837  23.594   8.858
26288W        W79184  13.941   6.246   9.006
26289W        W79185   2.387   3.617   8.103
26290W        W79186   4.375   2.989   1.643
26291W        W79187  27.156   2.277   2.298
26292W        W79188   9.032  31.785   9.263
26293W        W79189  27.971  13.101   9.552
26294W        W79190  18.621  29.225  10.165
26295W        W79191  22.712  33.986   9.412
26296W        W79192  10.430  16.642   9.706
26297W        W79193   5.274   6.575   9.044
26298W        W79194  18.940  18.507   0.721
26299W        W79195  21.382  33.625   3.130
26300W        W79196   5.220  35.098   2.241
26301W        W79197  12.979  24.252   9.724
26302W        W79198  16.048  18.310  10.212
26303W        W79199  34.839   8.839   8.940
26304W        W79200  12.838  32.483   1.741
26305W        W79201  20.262  24.644   3.065
26306W        W79202  20.979  15.106   0.240
26307W        W79203  17.786   1.576   8.404
26308W        W79204  14.070  18.431  10.021
26309W        W79205  13.762  34.382   2.692
26310W        W79206   0.103  34.065   8.043
26311W        W79207  34.481  30.186   1.366
26312W        W79208  14.076  12.315   3.034
26313W        W79209   2.922  32.494   3.479
26314W        W79210   8.784  33.379   8.376
26315W        W79211  13.688  14.928   8.725
26316W        W79212   0.747  16.912   0.447
26317W        W79213  14.693   0.331   2.629
26318W        W79214  30.452   8.237   8.081
26319W        W79215  11.903   9.440   3.327
26320W        W79216   8.073  24.773   7.457
26321W        W79217   4.772  11.639   2.164
26322W        W79218  29.654   0.920   9.634
26323W        W79219  26.623  28.814   0.406
26324W        W79220   5.901  19.346   2.055
26325W        W79221  22.269   5.091   2.457
26326W        W79222  29.462  14.524   3.739
26327W        W79223  16.617   2.239   1.337
26328W        W79224  35.485  14.389   2.583
26329W        W79225   5.203  14.769   8.175
26330W        W79226   6.989  23.559   1.293
26331W        W79227  11.154  11.358   2.506
26332W        W79228  29.193   6.679   0.334
26333W        W79229   4.462  20.764   1.380
26334W        W79230   4.562  20.520   8.893
26335W        W79231  34.843  22.630   2.740
26336W        W79232  11.044  12.195   0.728
26337W        W79233  15.566  31.684   1.170
26338W        W79234   8.707   3.748   1.223
26339W        W79235  15.290  15.381   1.685
26340W        W79236  15.935  33.211   3.190
26341W        W79237  20.880  24.184   9.545
26342W        W79238   3.163  18.587   1.567
26343W        W79239  10.650   5.292   3.368
26344W        W79240  31.580  15.714   8.383
26345W        W79241   1.804   6.002  10.161
26346W        W79242  21.240   8.432   1.754
26347W        W79243   1.248  26.987   0.264
26348W        W79244   3.315  30.932   8.655
26349W        W79245   9.182  11.382   7.861
26350W        W79246  31.756   3.831   9.014
26351W        W79247  24.977  17.811   2.141
26352W        W79248   5.872   5.239   2.075
26353W        W79249  22.690  31.894   0.477
26354W        W79250  32.030  14.179   2.071
26355W        W79251  10.309  28.733   1.623
26356W        W79252  29.032  28.570   9.670
26357W        W79253  12.263  31.601   9.202
26358W        W79254  26.399  10.373   1.551
26359W        W79255  25.507  16.232   9.856
26360W        W79256  11.768   9.073   9.596
26361W        W79257  15.325  21.880   0.961
26362W        W79258   6.970  29.228   3.438
26363W        W79259   4.103  10.716   9.225
26364W        W79260   6.029  13.598   8.490
26365W        W79261   1.858  21.255   0.642
26366W        W79262  10.669  14.982   0.285
26367W        W79263  24.840   9.282   7.535
26368W        W79264   9.775   5.177   1.067
26369W        W79265  19.638  22.741   9.978
26370W        W79266  25.416  18.714   0.769
26371W        W79267  35.442  27.312   3.044
26372W        W79268   4.678  23.083   8.545
26373W        W79269  22.736   6.235   1.755
26374W        W79270  20.561  34.857   7.486
26375W        W79271  26.480  21.995   0.825
26376W        W79272  23.664   3.598   3.168
26377W        W79273   3.518  12.698   8.643
26378W        W79274  17.819  15.834   8.139
26379W        W79275  10.278  14.803   2.781
26380W        W79276  28.420  10.729   8.973
26381W        W79277   6.867  18.997   9.153
26382W        W79278   6.494  24.256   0.609
26383W        W79279  12.851  16.889   7.986
26384W        W79280  29.463  32.484   0.276
26385W        W79281   4.239  33.983   7.532
26386W        W79282   3.635  12.667   9.173
26387W        W79283  30.538  19.177   8.607
26388W        W79284  28.088  20.071   0.922
26389W        W79285   4.184  20.341   1.445
26390W        W79286   5.128  28.916   8.268
26391W        W79287  23.836  31.659   0.043
26392W        W79288  35.300  19.598   1.530
26393W        W79289  14.134   0.047   3.190
26394W        W79290   7.608  22.371   7.274
26395W        W79291   5.117  25.676   9.500
26396W        W79292  33.009  14.789   8.681
26397W        W79293  10.309  32.857   0.651
26398W        W79294  11.746  35.170   8.345
26399W        W79295   2.119  24.937   1.723
26400W        W79296  23.476   0.399   1.779
26401W        W79297  24.577   9.962   1.917
26402W        W79298  35.454  19.208   9.731
26403W        W79299   6.312  16.922   1.665
26404W        W79300   5.577  28.601   0.132
26405W        W79301  18.105  34.538   0.096
26406W        W79302  16.411  25.700   2.592
26407W        W79303   5.641   4.317   0.705
26408W        W79304  31.777  11.709   0.539
26409W        W79305  12.866  20.706   9.041
26410W        W79306   4.722  17.870   9.490
26411W        W79307   3.228  19.885   0.312
26412W        W79308  28.634   2.799   1.693
26413W        W79309  34.888  31.177   2.728
26414W        W79310  14.111  28.579   7.880
26415W        W79311  24.115   2.232   8.236
26416W        W79312   0.568   5.550   3.466
26417W        W79313  21.646  11.048   0.132
26418W        W79314   4.498  20.262   8.471
26419W        W79315  14.483  18.367   0.039
26420W        W79316  25.612  17.181   1.480
26421W        W79317  24.043  19.413   8.478
26422W        W79318  22.552  34.085   0.774
26423W        W79319  26.758  33.776   7.369
26424W        W79320   8.914  26.320   9.454
26425W        W79321   6.610  24.917   0.561
26426W        W79322   2.830  13.445   0.067
26427W        W79323  36.010  25.684   0.531
26428W        W79324  10.255  10.591   2.028
26429W        W79325  20.098   9.276   3.432
26430W        W79326  32.664  13.874   7.042
26431W        W79327   8.316  22.002   7.846
26432W        W79328  32.627  27.753   2.544
26433W        W79329   5.876  12.124   9.041
26434W        W79330   5.366  29.886   1.224
26435W        W79331  31.364   3.098   8.428
26436W        W79332  17.973  16.327   9.439
26437W        W79333  15.925  11.699   3.133
26438W        W79334  20.676   4.377   9.710
26439W        W79335   7.132   2.274   8.278
26440W        W79336   2.415  35.202   3.162
26441W        W79337  22.098  28.502   1.618
26442W        W79338  22.922   0.270  10.166
26443W        W79339   3.890  23.070   9.296
26444W        W79340  14.649  24.413   9.446
26445W        W79341  25.190   8.294   3.719
26446W        W79342  25.764  18.313   7.499
26447W        W79343  27.246  33.687  10.209
26448W        W79344   0.046  19.938   2.957
26449W        W79345  27.574   3.222   9.699
26450W        W79346  22.207  29.478   2.896
26451W        W79347  35.023  31.320   8.253
26452W        W79348  29.917  33.952   8.716
26453W        W79349   3.856   4.447   2.516
26454W        W79350  19.405  35.381   9.791
26455W        W79351   9.488   5.806   7.819
26456W        W79352  30.673  19.055  10.149
26457W        W79353   9.132   0.659   7.821
26458W        W79354  35.687  30.286   9.339
26459W        W79355  33.429  20.411   2.365
26460W        W79356  30.200  30.008   9.440
26461W        W79357  30.620  22.024   9.554
26462W        W79358   9.120  32.956  10.037
26463W        W79359  33.566   4.528   9.232
26464W        W79360  16.454   1.677   2.417
26465W        W79361  14.879  32.831   0.507
26466W        W79362  20.304  12.929   1.538
26467W        W79363  10.290   7.364   0.468
26468W        W79364  10.795  26.154   8.937
26469W        W79365  30.304  15.644   8.370
26470W        W79366  12.430   7.210   1.350
26471W        W79367  28.488   3.137   8.404
26472W        W79368  33.433  12.305   0.012
26473W        W79369  15.606   2.177   3.641
26474W        W79370  14.922  13.276   0.352
26475W        W79371  19.889  28.166   3.447
26476W        W79372  14.048   6.307   1.649
26477W        W79373   0.978  16.235   1.951
26478W        W79374  33.196  29.843   1.649
26479W        W79375  18.480  28.770   8.743
26480W        W79376   5.058   1.905   9.430
26481W        W79377  33.988  25.101   8.080
26482W        W79378   2.199  15.099   2.544
26483W        W79379  25.670  15.537   2.621
26484W        W79380   6.034   3.900   3.074
26485W        W79381  27.699  13.650   8.102
26486W        W79382  31.957   6.959   2.575
26487W        W79383  10.837   7.481   0.303
26488W        W79384  31.726  30.376   0.391
26489W        W79385  15.189   0.030   1.200
26490W        W79386  20.762  16.593   2.360
26491W        W79387  30.804  22.879   8.853
26492W        W79388  26.606  16.174   8.932
26493W        W79389  35.163   8.330   3.461
26494W        W79390   3.629  11.249   0.016
26495W        W79391  32.652  34.685   8.632
26496W        W79392  22.160  16.124   8.448
26497W        W79393   1.470   3.921   9.275
26498W        W79394  10.471  29.054   8.237
26499W        W79395  10.338  28.033   9.528
26500W        W79396   2.554  13.179   2.550
26501W        W79397  22.623  25.084   1.645
26502W        W79398  34.752   4.638   7.936
26503W        W79399  31.534  25.784   0.968
26504W        W79400   3.114  18.731   7.601
26505W        W79401  16.253  32.941  10.217
26506W        W79402  22.745  10.656   3.938
26507W        W79403  10.030   8.336   8.756
26508W        W79404   8.064   4.636   1.955
26509W        W79405  23.793   3.999   0.405
26510W        W79406  16.272  30.678   2.210
26511W        W79407  10.661   3.926   1.739
26512W        W79408  18.405   5.883   3.331
26513W        W79409  21.446  34.191   0.847
26514W        W79410  35.848  23.429   3.495
26515W        W79411   3.562  13.251   8.503
26516W        W79412  15.494   8.786   0.783
26517W        W79413   7.734  35.982   1.627
26518W        W79414  32.618  25.629   2.589
26519W        W79415  19.795  31.790   7.842
26520W        W79416  10.686   8.167   2.014
26521W        W79417   8.501   2.922   9.097
26522W        W79418  15.623  27.998   1.351
26523W        W79419  15.378  33.950   1.207
26524W        W79420   7.798  24.291   1.993
26525W        W79421  23.181   8.676   9.540
26526W        W79422  31.776  34.499   2.692
26527W        W79423   8.093   9.578  10.172
26528W        W79424  10.876  26.627   7.859
26529W        W79425  18.413  17.099   9.485
26530W        W79426  21.433  13.459   0.658
26531W        W79427  16.556   3.844   0.093
26532W        W79428   6.314  19.260   8.275
26533W        W79429  29.250  35.727   8.586
26534W        W79430  31.955  10.816  10.279
26535W        W79431   3.155  33.613   8.148
26536W        W79432  14.207   6.760   3.490
26537W        W79433  21.412  22.445   8.677
26538W        W79434   1.943  16.062   1.161
26539W        W79435  25.347  14.349   3.678
26540W        W79436  34.281  31.745   3.447
26541W        W79437   1.959   1.407   7.769
26542W        W79438  22.798  13.009   9.578
26543W        W79439  11.029  12.517   9.166
26544W        W79440  18.910  34.516   9.026
26545W        W79441  19.116  24.011   9.100
26546W        W79442  20.048  11.220   8.514
26547W        W79443  23.774  24.984   7.738
26548W        W79444   3.549   9.517   2.970
26549W        W79445  28.261  27.354   8.275
26550W        W79446  22.883  33.267   0.377
26551W        W79447  14.713  28.170   3.003
26552W        W79448  31.518   8.786   3.281
26553W        W79449  29.687  27.431   0.616
26554W        W79450  18.299  10.970   4.400
26555W        W79451  13.308  30.396   3.518
26556W        W79452  15.299  14.122   8.452
26557W        W79453   8.830  18.516   9.845
26558W        W79454  34.098  14.452   1.359
26559W        W79455   7.124  28.892   2.680
26560W        W79456  32.316  16.833   3.778
26561W        W79457  20.383  20.760   2.294
26562W        W79458   9.338  13.217   7.903
26563W        W79459   5.153   3.771   9.048
26564W        W79460   9.468  29.394   0.656
26565W        W79461  25.990   8.153   7.231
26566W        W79462   5.556   7.042   1.530
26567W        W79463   3.444  25.531   9.243
26568W        W79464   6.613   5.288  10.268
26569W        W79465  23.969   8.022   7.814
26570W        W79466  28.447  26.192   0.167
26571W        W79467   8.549  12.507   2.059
26572W        W79468  21.242  25.317   2.018
26573W        W79469  10.477  29.906   0.317
26574W        W79470   8.983   8.199   7.563
26575W        W79471   1.386  14.608  10.232
26576W        W79472  28.772  34.696   9.318
26577W        W79473  21.059  18.153   0.436
26578W        W79474  12.695   6.211   8.411
26579W        W79475  30.696   2.481   0.740
26580W        W79476  34.268   8.186   1.394
26581W        W79477   2.476  33.829   7.415
26582W        W79478  19.459  10.693   9.840
26583W        W79479  31.371   9.196   1.912
26584W        W79480  20.432  13.094   0.796
26585W        W79481  31.132   0.129   7.755
26586W        W79482  34.333   4.637   0.611
26587W        W79483  22.943   5.872   7.324
26588W        W79484   0.462  31.918   2.174
26589W        W79485  30.335  20.257   2.111
26590W        W79486  29.469  32.559   8.769
26591W        W79487  32.492  33.826   9.090
26592W        W79488  19.639  34.205   9.209
26593W        W79489  23.069  13.184   3.074
26594W        W79490  28.479  12.983   9.650
26595W        W79491  27.199  23.239   0.794
26596W        W79492   7.038  17.020   2.171
26597W        W79493   3.128   9.567   2.611
26598W        W79494  34.671  33.451   0.288
26599W        W79495   1.993   9.604  10.236
26600W        W79496  31.326  30.041   0.342
26601W        W79497  22.466   9.947   0.824
26602W        W79498  24.151   4.942   2.596
26603W        W79499   7.625  19.600   1.559
26604W        W79500  34.117   5.258   3.278
26605W        W79501  11.128   7.630   9.971
26606W        W79502  31.682  16.481  10.045
26607W        W79503   4.215  30.368   8.241
26608W        W79504  33.376  30.692   2.752
26609W        W79505  30.797  11.648   0.419
26610W        W79506  20.442   2.320   0.217
26611W        W79507  32.627  21.820   7.381
26612W        W79508   0.450  20.988   3.386
26613W        W79509  34.357  12.767   2.034
26614W        W79510   8.407   5.881  10.228
26615W        W79511  17.721   8.213   9.787
26616W        W79512  19.233   2.327   8.593
26617W        W79513  27.957  31.587   0.730
26618W        W79514  28.596  19.811   3.538
26619W        W79515  16.971  20.936   8.575
26620W        W79516   5.893  35.019   2.699
26621W        W79517  28.696  31.866   1.825
26622W        W79518  18.570   3.465   8.069
26623W        W79519   1.227  23.495   0.743
26624W        W79520  30.162  33.543   2.052
26625W        W79521  24.263   4.818   7.666
26626W        W79522  18.125  29.900  10.258
26627W        W79523  31.449  18.726   1.275
26628W        W79524  16.764   0.647   8.387
26629W        W79525   9.486   3.341   0.643
26630W        W79526   8.672  10.831   7.110
26631W        W79527  15.247  13.653   9.453
26632W        W79528  10.117  16.039   1.953
26633W        W79529  15.458  28.496   0.871
26634W        W79530  11.363  10.594   0.949
26635W        W79531  12.548   0.187  10.335
26636W        W79532  13.690  26.113   8.006
26637W        W79533  18.464  15.462   1.659
26638W        W79534  11.134  15.167   1.214
26639W        W79535  34.959  33.856   0.464
26640W        W79536   5.401   1.221   1.878
26641W        W79537   2.647  10.630   1.985
26642W        W79538  18.711  16.701   3.284
26643W        W79539  12.187  33.214   8.250
26644W        W79540  25.918  20.366   9.331
26645W        W79541  25.095  23.456   1.454
26646W        W79542  19.871  16.328   2.397
26647W        W79543  16.935   1.760   0.479
26648W        W79544  12.637  18.899   8.885
26649W        W79545  16.169  19.903  10.094
26650W        W79546  15.972   8.142   9.290
26651W        W79547  23.562  32.145   8.767
26652W        W79548  12.004  32.365   1.793
26653W        W79549  30.497  35.275   1.799
26654W        W79550  35.339  24.157  10.273
26655W        W79551  27.785  19.320   8.767
26656W        W79552  10.065  12.009   9.880
26657W        W79553  11.873   1.585   2.647
26658W        W79554  11.759  26.884   0.292
26659W        W79555  28.386   2.647   9.801
26660W        W79556  22.914   5.368   3.284
26661W        W79557  19.150  11.622   9.402
26662W        W79558  19.890  31.684   1.657
26663W        W79559  17.135  33.742   0.879
26664W        W79560  32.283  33.401   0.449
26665W        W79561  14.349  27.443   0.941
26666W        W79562  24.281  35.885   3.509
26667W        W79563   9.893   0.535   7.470
26668W        W79564  25.350   4.684   9.356
26669W        W79565  11.297  14.534   0.186
26670W        W79566  10.556   0.097   9.926
26671W        W79567  25.920  10.976  10.333
26672W        W79568  20.035  13.799   1.524
26673W        W79569  21.232  10.023   0.863
26674W        W79570  25.990  32.877   2.814
26675W        W79571   9.288  27.234   0.515
26676W        W79572  14.677  12.863   1.323
26677W        W79573  16.163  18.001   9.124
26678W        W79574  17.647   7.201   1.591
26679W        W79575  22.129  34.188   8.542
26680W        W79576  19.755  20.247   3.747
26681W        W79577   8.190   2.107   9.302
26682W        W79578   2.052   4.615   2.147
26683W        W79579  15.789   1.305   1.406
26684W        W79580  35.684  25.921   0.222
26685W        W79581  27.697  28.291   3.219
26686W        W79582   6.267  24.699   7.682
26687W        W79583   0.548  30.838   3.697
26688W        W79584  27.546  31.354   1.227
26689W        W79585   8.906  31.420   2.716
26690W        W79586  30.317   0.070   8.193
26691W        W79587   4.263  13.909   1.171
26692W        W79588  16.701  11.598   0.492
26693W        W79589  22.438   5.401   7.883
26694W        W79590   9.211  21.689   0.494
26695W        W79591   8.807  14.767   0.106
26696W        W79592   1.766  20.375   2.798
26697W        W79593  22.645  34.125   1.250
26698W        W79594  20.756  27.377   1.996
26699W        W79595  30.501  35.772   1.232
26700W        W79596  35.779  23.740   1.598
26701W        W79597  28.049  32.668   1.891
26702W        W79598  35.621  18.340   1.563
26703W        W79599  21.680  14.913   0.967
26704W        W79600  11.242   3.544   1.420
26705W        W79601  34.310   1.010   3.041
26706W        W79602  33.806  16.437   1.582
26707W        W79603  19.214  25.012   1.651
26708W        W79604  18.500  34.670   1.334
26709W        W79605   7.963   8.949   2.237
26710W        W79606   8.862   9.928   8.712
26711W        W79607   5.149   8.682   7.822
26712W        W79608  17.094  24.727   3.330
26713W        W79609  12.936   3.119   9.206
26714W        W79610  34.924   5.608   3.461
26715W        W79611   7.811   8.750   8.048
26716W        W79612  23.562  25.285   2.956
26717W        W79613  26.605  17.562   1.732
26718W        W79614   9.120  35.500   2.044
26719W        W79615  10.640  16.302   9.333
26720W        W79616  21.598   5.116   1.861
26721W        W79617  19.712  18.830   8.713
26722W        W79618   3.427  13.270   9.957
26723W        W79619  20.776  24.616   0.415
26724W        W79620  22.854  31.376   7.400
26725W        W79621   2.983  16.339   2.140
26726W        W79622  24.528  28.296   7.411
26727W        W79623   5.611   2.546   0.852
26728W        W79624   2.163  24.349   9.008
26729W        W79625  12.669  29.622   8.534
26730W        W79626   5.628  27.291   3.436
26731W        W79627  29.290  15.667   0.663
26732W        W79628  34.218  14.315   0.323
26733W        W79629  30.815  14.112   2.640
26734W        W79630  16.901  31.970   8.908
26735W        W79631   3.937   6.458   8.881
26736W        W79632  15.789  20.625   9.351
26737W        W79633   6.821   7.739   0.835
26738W        W79634  34.943  19.392   1.149
26739W        W79635  32.566  27.375   0.009
26740W        W79636  22.807  11.186   0.050
26741W        W79637  31.748   5.576   0.988
26742W        W79638  15.668  14.650   0.713
26743W        W79639  23.815  29.014   2.507
26744W        W79640  13.695  13.649   8.127
26745W        W79641  32.257  27.526   8.709
26746W        W79642   3.401   0.610   2.141
26747W        W79643   6.634  31.491   2.353
26748W        W79644   5.756  32.383   2.321
26749W        W79645   6.140  20.095  10.258
26750W        W79646  17.826  19.275   1.146
26751W        W79647  20.127   2.593   8.111
26752W        W79648  27.829  29.770   7.492
26753W        W79649   1.764  25.826   0.042
26754W        W79650  24.897  25.315   8.595
26755W        W79651   0.001  12.842   9.613
26756W        W79652  27.689  26.519   9.274
26757W        W79653  32.962   1.614   2.125
26758W        W79654  13.530  20.428   7.259
26759W        W79655  17.204   1.798   8.636
26760W        W79656   1.177  26.992   2.151
26761W        W79657  17.623  23.965   2.681
26762W        W79658  10.042  14.396   2.512
26763W        W79659  25.812   1.131   0.227
26764W        W79660  22.490   1.084   9.716
26765W        W79661  28.904  14.195   0.423
26766W        W79662  32.988  19.716   2.976
26767W        W79663  20.958   2.432   1.817
26768W        W79664  31.298  17.479  10.011
26769W        W79665   6.607   6.273   0.524
26770W        W79666  19.434  12.185   0.219
26771W        W79667   3.770  23.154   0.623
26772W        W79668   4.035   5.642   0.366
26773W        W79669   6.331   1.197   0.433
26774W        W79670  28.160  30.101   2.607
26775W        W79671  12.350  20.385   2.282
26776W        W79672  20.140  15.393   0.587
26777W        W79673   8.986  29.708   0.883
26778W        W79674  24.422  11.576   3.415
26779W        W79675  26.156  11.836   3.634
26780W        W79676  16.613   7.254   0.390
26781W        W79677  11.478  31.655   8.581
26782W        W79678  24.516  32.809   2.641
26783W        W79679  22.844   1.661   7.392
26784W        W79680  33.094   3.914   8.543
26785W        W79681  15.409  13.289   0.350
26786W        W79682  22.714  12.876   1.683
26787W        W79683  14.009  34.387   3.175
26788W        W79684   6.755   4.060   8.014
26789W        W79685  25.283  22.720   0.916
26790W        W79686  24.996   7.418   9.876
26791W        W79687  17.155  10.152   8.987
26792W        W79688  23.740   0.300   7.112
26793W        W79689  18.004   8.174   1.756
26794W        W79690   0.843  23.723   3.458
26795W        W79691   2.639  14.399   8.215
26796W        W79692  25.412  23.259   2.354
26797W        W79693  32.892  24.909   8.878
26798W        W79694  18.969   5.298   8.088
26799W        W79695  17.327   9.916   9.402
26800W        W79696  32.491  31.173   2.190
26801W        W79697  25.076  16.161   8.506
26802W        W79698   8.613  34.624   7.504
26803W        W79699  13.379  30.036   9.517
26804W        W79700   5.273   8.025   9.083
26805W        W79701   5.148  34.954   9.272
26806W        W79702  11.497  23.170   7.297
26807W        W79703   4.232   3.832   8.584
26808W        W79704  32.322  34.338   8.947
26809W        W79705  26.703  11.682   1.317
26810W        W79706  10.235  17.275   0.160
26811W        W79707   3.735  24.135   0.361
26812W        W79708   3.094  35.869   8.855
26813W        W79709   2.041  20.592  10.290
26814W        W79710  27.020   8.941   9.676
26815W        W79711   3.887   7.088   2.749
26816W        W79712   5.413  16.711   8.448
26817W        W79713   0.297   3.412   1.020
26818W        W79714  33.844  27.611   2.872
26819W        W79715  15.432  27.738   1.948
26820W        W79716  14.437  17.879   0.831
26821W        W79717  11.368   1.789   1.809
26822W        W79718   1.026   7.460   8.903
26823W        W79719  23.800  20.624   0.354
26824W        W79720  31.120  16.432   2.036
26825W        W79721   9.711  13.300   2.094
26826W        W79722  19.755  30.113   1.677
26827W        W79723  28.342  21.745   1.008
26828W        W79724  19.558  20.588   9.261
26829W        W79725   2.732  11.439   0.427
26830W        W79726  22.378  34.245  10.338
26831W        W79727   2.261   4.883   0.825
26832W        W79728  24.770  14.564   2.308
26833W        W79729  15.736   4.911   2.058
26834W        W79730  10.543   1.195   8.348
26835W        W79731  19.410  25.864   9.681
26836W        W79732  29.561  18.479   0.604
26837W        W79733  12.347  18.299   8.280
26838W        W79734  17.417  32.346   2.464
26839W        W79735  32.860   9.301   2.068
26840W        W79736   0.430  20.465   3.397
26841W        W79737  12.269   3.002   9.227
26842W        W79738  29.245  25.759   0.767
26843W        W79739  31.001   5.036   2.977
26844W        W79740  11.130  15.608   8.697
26845W        W79741  15.140  16.507   1.346
26846W        W79742  13.576  35.339   0.787
26847W        W79743  19.850  17.177   0.696
26848W        W79744  20.183   2.591   0.557
26849W        W79745  26.011  27.181   9.100
26850W        W79746  27.871  29.298   7.648
26851W        W79747   2.966  31.818   8.322
26852W        W79748  15.463  27.956   3.411
26853W        W79749   7.798  17.865   7.603
26854W        W79750  32.546   6.118  10.104
26855W        W79751  31.750   7.337   1.761
26856W        W79752  12.946  25.766   7.749
26857W        W79753  19.441  35.586   2.095
26858W        W79754  34.780  16.948   9.707
26859W        W79755   3.135  21.208   1.411
26860W        W79756   1.923   6.214   7.326
26861W        W79757  10.890  33.426   0.370
26862W        W79758   5.268  16.101   0.383
26863W        W79759  29.491  21.690   1.950
26864W        W79760  32.587   7.469   0.075
26865W        W79761  35.180   6.183   1.074
26866W        W79762  29.800   8.098   8.581
26867W        W79763  14.026  16.576   8.168
26868W        W79764   3.295  31.167   9.110
26869W        W79765  19.150  20.862   0.307
26870W        W79766  16.624   9.060   8.945
26871W        W79767  14.964  30.346   2.560
26872W        W79768  14.713  11.809   1.619
26873W        W79769  31.847  31.697   0.961
26874W        W79770   0.828   3.660   0.218
26875W        W79771  34.324  27.695   7.600
26876W        W79772  19.539  17.664   0.698
26877W        W79773  26.393  30.131  10.109
26878W        W79774  34.944   5.023   9.509
26879W        W79775  28.847  14.546   1.082
26880W        W79776  34.133   2.624   7.787
26881W        W79777  26.336  20.903  10.301
26882W        W79778  18.991  16.610   1.935
26883W        W79779  19.040   1.446   9.059
26884W        W79780  19.176  19.695   9.233
26885W        W79781  23.617  31.114   3.566
26886W        W79782   8.315   0.190   9.927
26887W        W79783  18.322  35.045   0.414
26888W        W79784  35.462  14.376   3.541
26889W        W79785   4.605  13.705   1.453
26890W        W79786   2.089  31.736   3.481
26891W        W79787  17.481  12.537   8.779
26892W        W79788  27.198  26.532   1.027
26893W        W79789  18.886   8.530   2.246
26894W        W79790  26.151   5.393   8.009
26895W        W79791  13.017  20.995   0.826
26896W        W79792   0.073   8.958   9.929
26897W        W79793  19.845  27.811   8.256
26898W        W79794  35.943  31.157   9.376
26899W        W79795  13.930   7.614   0.351
26900W        W79796  17.533  11.699   3.618
26901W        W79797  26.523  29.783   9.758
26902W        W79798  30.857  26.683   3.073
26903W        W79799  12.367  20.710   0.196
26904W        W79800  15.041  30.241   9.829
26905W        W79801  34.313  30.760   9.005
26906W        W79802  26.091  23.345   0.443
26907W        W79803  35.370  26.176   2.276
26908W        W79804  34.422  30.099   3.108
26909W        W79805  21.621  27.685   0.499
26910W        W79806   1.958  29.692   2.113
26911W        W79807  20.603   2.540   7.820
26912W        W79808   4.134  21.400   3.325
26913W        W79809   6.581  13.664   0.853
26914W        W79810  28.885  33.409   8.726
26915W        W79811  13.394  28.986   0.424
26916W        W79812   8.802  25.050   2.568
26917W        W79813  22.386   7.533   1.573
26918W        W79814  15.147  10.559   1.908
26919W        W79815  26.894  15.094   1.567
26920W        W79816  13.205   6.212   8.532
26921W        W79817  10.512  19.896   2.500
26922W        W79818   9.243  23.520   9.960
26923W        W79819  33.540  34.541   1.144
26924W        W79820   5.984  34.590   9.193
26925W        W79821  31.288  17.655   1.251
26926W        W79822  25.869  11.870   1.783
26927W        W79823  15.069  15.192   0.386
26928W        W79824  13.243  31.516   2.655
26929W        W79825   8.829  24.901   0.049
26930W        W79826  13.505  23.920   3.075
26931W        W79827  19.197  25.155   8.236
26932W        W79828   9.851  29.312   8.530
26933W        W79829  31.434  35.154  10.073
26934W        W79830  26.312  24.842   7.176
26935W        W79831   7.059  21.541   3.169
26936W        W79832  19.104  13.032   0.955
26937W        W79833  20.584  11.139   8.505
26938W        W79834  10.488   7.302   0.001
26939W        W79835  23.802   1.811   1.203
26940W        W79836   6.550  10.034   0.277
26941W        W79837   9.157  34.287   2.988
26942W        W79838  32.999  16.362   0.565
26943W        W79839  23.795  34.457   0.111
26944W        W79840  11.833   9.345  10.073
26945W        W79841  13.988  33.377   0.473
26946W        W79842   5.898  19.293   2.604
26947W        W79843  13.973   2.413   2.370
26948W        W79844  25.389   3.045   2.989
26949W        W79845  28.890   7.242   7.555
26950W        W79846  23.810  21.271  10.124
26951W        W79847  24.861  12.565   0.430
26952W        W79848   5.771   0.385   2.326
26953W        W79849  31.938   1.347   9.869
26954W        W79850  21.491  32.051   1.097
26955W        W79851  33.783  35.766   9.607
26956W        W79852   1.581  20.165   2.103
26957W        W79853   8.022  34.503   7.830
26958W        W79854   5.786  10.703   7.993
26959W        W79855  13.848   9.800   9.346
26960W        W79856   5.090   1.571  10.312
26961W        W79857  23.964  29.594   2.573
26962W        W79858  22.419   1.221   8.377
26963W        W79859   9.671  16.187   9.569
26964W        W79860  29.295  11.037   8.856
26965W        W79861  28.191   2.151   8.300
26966W        W79862   5.426  21.137   3.149
26967W        W79863  33.891  18.758   8.837
26968W        W79864  22.455  26.873   2.819
26969W        W79865  25.401  34.018   2.491
26970W        W79866  34.091  29.064   0.415
26971W        W79867   7.742  10.812   3.272
26972W        W79868  32.099  10.709   1.537
26973W        W79869  22.192  18.924   9.451
26974W        W79870  21.498   6.422  10.269
26975W        W79871   7.603   9.278   2.058
26976W        W79872  32.947  17.660   0.090
26977W        W79873  11.612   5.915   9.540
26978W        W79874  15.980  14.374   3.629
26979W        W79875   9.807  32.523   7.400
26980W        W79876  29.952  18.075   9.814
26981W        W79877  15.928  12.191   0.416
26982W        W79878  18.470  24.105   0.812
26983W        W79879   3.294  28.044   0.845
26984W        W79880  11.942  35.752   0.940
26985W        W79881  15.719  15.999   7.516
26986W        W79882   4.945  35.171   7.756
26987W        W79883   1.296  26.620   2.432
26988W        W79884  13.723  31.687   1.666
26989W        W79885  14.397   2.880   2.303
26990W        W79886  35.430  23.213   8.598
26991W        W79887  27.169  19.421   9.926
26992W        W79888  27.934   4.853   3.297
26993W        W79889   0.872  13.176   9.487
26994W        W79890   7.960  16.694   9.070
26995W        W79891   7.408  30.338   1.562
26996W        W79892  27.317  12.498   0.295
26997W        W79893  28.460   3.685   8.431
26998W        W79894   5.814  10.384   2.786
26999W        W79895  21.406  17.046   3.277
27000W        W79896  27.276  16.368   3.415
27001W        W79897   7.500  18.048   2.765
27002W        W79898  19.529  22.737   3.006
27003W        W79899   8.488  31.421   8.497
27004W        W79900  28.507  31.097   0.256
27005W        W79901  13.128   5.514   2.097
27006W        W79902  24.009   8.876   8.936
27007W        W79903  29.533  19.314   1.491
27008W        W79904  26.142  24.853   7.899
27009W        W79905  33.775  32.010   1.430
27010W        W79906  16.722  20.918   9.007
27011W        W79907  17.508  27.076   0.052
27012W        W79908   6.946  32.652   9.665
27013W        W79909  23.255  17.143   8.538
27014W        W79910  16.143   0.511   2.689
27015W        W79911   5.202  26.133   2.134
27016W        W79912  25.304  18.461   2.914
27017W        W79913  20.473  30.031   9.933
27018W        W79914  18.600  14.511   7.296
27019W        W79915   9.181  20.832   0.286
27020W        W79916   3.263  33.441   1.932
27021W        W79917  23.921  33.912  10.326
27022W        W79918  34.951  28.832   9.412
27023W        W79919  20.201  14.210   2.864
27024W        W79920  17.306  21.630   1.937
27025W        W79921   2.015  26.095   7.691
27026W        W79922  11.301  31.679   9.968
27027W        W79923  11.861  12.739   8.062
27028W        W79924  27.824   5.405   8.607
27029W        W79925  28.106   5.314   1.998
27030W        W79926   8.334  28.110   1.478
27031W        W79927  32.479  23.869   3.179
27032W        W79928  24.899  17.890  10.219
27033W        W79929   8.149  15.146   9.829
27034W        W79930   9.239  22.100   9.867
27035W        W79931   8.202  10.986   1.779
27036W        W79932   2.440  23.583   2.758
27037W        W79933  31.380  23.461   9.337
27038W        W79934  34.336  24.227   9.705
27039W        W79935  27.058  26.284   7.875
27040W        W79936   9.764  27.683  10.037
27041W        W79937   2.522  11.132   3.527
27042W        W79938  34.927  25.557   8.459
27043W        W79939  32.284  29.555   2.774
27044W        W79940  11.217   5.210  10.218
27045W        W79941  33.881  15.460   9.761
27046W        W79942  21.356   0.841   1.986
27047W        W79943  17.579  34.796   3.280
27048W        W79944   2.458  19.833   1.787
27049W        W79945  23.101  26.496   9.657
27050W        W79946  33.333  16.217   8.521
27051W        W79947  12.139   1.071   0.925
27052W        W79948   1.688  28.403   8.264
27053W        W79949  18.503  16.422   2.073
27054W        W79950  21.251   0.913   0.346
27055W        W79951  18.732  12.646   2.504
27056W        W79952  28.738  15.409   8.493
27057W        W79953  26.224  23.555   7.477
27058W        W79954   3.605  35.574   2.501
27059W        W79955   2.671  30.409  10.180
27060W        W79956  20.755  24.701   9.623
27061W        W79957  11.049  29.790   7.477
27062W        W79958   2.708  16.185   0.651
27063W        W79959  21.335   7.605   2.701
27064W        W79960  31.114   5.296   8.448
27065W        W79961  17.936  19.424   0.250
27066W        W79962  13.620   0.041   9.598
27067W        W79963  21.806  29.622   1.216
27068W        W79964  14.663  35.125   9.094
27069W        W79965  21.794   9.180  10.133
27070W        W79966  12.098  21.759   1.817
27071W        W79967   0.366   5.556   8.819
27072W        W79968  28.729  24.075   8.253
27073W        W79969  35.264  32.546   1.321
27074W        W79970  19.277  31.761   0.914
27075W        W79971  24.187  27.545   1.355
27076W        W79972  18.802  24.176   2.376
27077W        W79973   7.290  24.585   0.235
27078W        W79974  31.635   4.980   2.829
27079W        W79975  28.795  30.863   2.712
27080W        W79976  26.166  35.854   0.379
27081W        W79977  30.037  29.886   1.657
27082W        W79978  35.295  28.350   3.671
27083W        W79979  22.557  18.609   9.597
27084W        W79980  28.675  29.433   7.242
27085W        W79981  20.082  23.573   1.063
27086W        W79982   1.173  24.536   2.429
27087W        W79983  21.584  20.068   0.656
27088W        W79984  21.364   9.250   0.578
27089W        W79985  18.486   8.102   0.523
27090W        W79986  14.066  12.871   2.898
27091W        W79987  31.022  13.194   9.770
27092W        W79988  26.172  28.052   2.197
27093W        W79989   8.781   8.030   3.620
27094W        W79990  18.612   6.573   3.366
27095W        W79991   7.018  30.715   7.065
27096W        W79992  22.341  27.671   8.600
27097W        W79993   9.104   9.001   3.605
27098W        W79994  13.597  29.704   7.358
27099W        W79995  33.281  24.688   1.171
27100W        W79996   7.394  22.291  10.311
27101W        W79997   9.282  35.915   7.256
27102W        W79998  33.231  29.397   1.444
27103W        W79999   2.244  31.428   2.175
27104W        W80000  21.408   4.767   2.454
27105W        W80001  19.194  16.294   0.085
27106W        W80002  17.852  19.634  10.165
27107W        W80003  25.865  28.405   9.341
27108W        W80004  11.768   2.367   2.284
27109W        W80005  28.825   9.605   7.575
27110W        W80006   6.235  33.430   2.280
27111W        W80007  28.175  22.887   2.327
27112W        W80008  14.523  10.664   8.551
27113W        W80009  10.286  10.270   3.158
27114W        W80010  33.953   2.713   9.193
27115W        W80011  20.497  35.442   1.712
27116W        W80012  22.829  32.427   1.272
27117W        W80013  31.023  23.967   3.150
27118W        W80014  26.941  28.431   0.338
27119W        W80015  25.084  27.148   1.889
27120W        W80016   8.788  15.569   9.029
27121W        W80017   0.197  34.157   2.812
27122W        W80018  33.508   1.712   8.190
27123W        W80019  23.616  30.680   9.556
27124W        W80020  13.905   9.326   8.291
27125W        W80021   9.141  12.613   0.012
27126W        W80022  10.403  28.031   8.389
27127W        W80023   2.778  30.340   7.805
27128W        W80024  12.517   6.395   0.995
27129W        W80025  32.629  34.193   7.933
27130W        W80026   8.673  29.541   8.501
27131W        W80027  23.149   5.978   0.647
27132W        W80028   0.990  21.522   3.884
27133W        W80029   1.071  28.841   7.628
27134W        W80030  35.805  11.408   9.051
27135W        W80031   9.227   0.404   2.283
27136W        W80032   7.203   4.264   0.614
27137W        W80033  32.692  23.352  10.160
27138W        W80034  12.163   8.976   0.316
27139W        W80035   2.424  18.511   9.207
27140W        W80036   9.056  26.528   1.681
27141W        W80037  32.077  35.432   8.071
27142W        W80038  19.249  26.987   2.984
27143W        W80039  25.100   4.249  10.132
27144W        W80040   2.805  27.127   2.810
27145W        W80041  31.320   4.567   9.078
27146W        W80042  35.270   2.833  10.262
27147W        W80043  28.665  14.619   7.754
27148W        W80044  16.114  15.488   0.031
27149W        W80045  10.998  21.574   9.304
27150W        W80046   2.689  34.728   0.726
27151W        W80047   9.014  10.391   3.132
27152W        W80048  31.712  17.253   1.936
27153W        W80049   9.969  31.475   7.839
27154W        W80050   8.387  12.154   9.551
27155W        W80051   0.927   3.208   9.015
27156W        W80052   8.918  34.206   2.391
27157W        W80053  20.215   3.056   2.070
27158W        W80054  35.246  30.068   2.291
27159W        W80055   0.024  19.286   0.104
27160W        W80056  30.485  17.170   3.180
27161W        W80057   4.462  25.862   1.628
27162W        W80058  12.415  28.476   3.223
27163W        W80059  26.100  21.543   0.834
27164W        W80060  16.986  14.970   8.751
27165W        W80061   1.565  23.988   8.678
27166W        W80062  30.560   6.423   7.346
27167W        W80063   3.612  11.605   2.729
27168W        W80064  21.139  13.398   3.727
27169W        W80065   4.514  29.858   2.254
27170W        W80066  25.179  20.447   1.993
27171W        W80067  11.314  28.863   9.470
27172W        W80068   3.246  10.438   1.672
27173W        W80069  27.923  16.846   7.860
27174W        W80070  34.929  27.548   2.690
27175W        W80071   2.317  21.412   9.292
27176W        W80072  16.909   1.367   9.299
27177W        W80073  20.206  17.613   2.955
27178W        W80074   7.323  12.699   2.678
27179W        W80075  29.196  18.626   8.920
27180W        W80076  12.517   4.474   2.594
27181W        W80077  25.017  19.940   9.362
27182W        W80078   5.531   2.076   1.718
27183W        W80079   5.269  11.573   9.693
27184W        W80080  10.369   3.923   3.001
27185W        W80081   4.998  13.253   8.679
27186W        W80082  32.025  32.563   1.390
27187W        W80083  19.812  28.091   9.228
27188W        W80084  25.867  31.205   1.426
27189W        W80085  32.883  15.747   3.380
27190W        W80086  17.843  20.457   1.004
27191W        W80087  12.499   5.358  10.281
27192W        W80088  31.808  11.133   0.804
27193W        W80089  19.466  31.799   9.484
27194W        W80090   4.128  34.433   8.740
27195W        W80091  35.096  11.108   9.895
27196W        W80092  25.942  29.672   1.065
27197W        W80093  13.191  14.093   2.798
27198W        W80094  35.271  17.117   9.815
27199W        W80095  13.015  35.590   8.700
27200W        W80096  15.031  10.648   8.401
27201W        W80097  21.502  10.583   0.230
27202W        W80098  20.047  20.628   2.647
27203W        W80099  29.814  11.948   3.026
27204W        W80100  33.238  12.249   8.588
27205W        W80101  22.711  18.196   1.920
27206W        W80102  13.815  22.028   9.910
27207W        W80103  28.521  17.403   7.969
27208W        W80104  17.541  29.515   3.562
27209W        W80105  19.900  26.372   3.350
27210W        W80106  25.205  31.946   1.252
27211W        W80107  36.013  19.478   3.649
27212W        W80108   4.581  20.782   8.442
27213W        W80109   8.035  16.113   8.910
27214W        W80110  23.429   9.200   9.456
27215W        W80111  34.625  28.574   7.649
27216W        W80112   6.476  33.057   2.555
27217W        W80113   4.918   5.107   2.204
27218W        W80114   3.487  17.725   3.229
27219W        W80115  19.665  35.917   1.798
27220W        W80116   0.340  18.833   3.052
27221W        W80117  32.656  29.460   8.482
27222W        W80118   2.829  10.147   1.832
27223W        W80119  16.696  22.737   2.687
27224W        W80120   5.239  34.940   9.811
27225W        W80121  25.553   1.719   9.158
27226W        W80122  22.509  34.826   8.840
27227W        W80123  13.171  24.972   0.311
27228W        W80124   3.232   4.802   8.630
27229W        W80125  35.016  35.316   8.811
27230W        W80126  29.014   0.200   0.927
27231W        W80127  16.670  10.621   3.167
27232W        W80128  33.577   2.212   8.486
27233W        W80129  29.458  34.967   8.367
27234W        W80130   5.633   3.601   2.298
27235W        W80131  29.158  30.900   9.856
27236W        W80132  11.104  16.473   9.402
27237W        W80133  19.526  33.276   0.172
27238W        W80134   1.616  31.048   7.849
27239W        W80135   8.209  15.726   7.305
27240W        W80136  17.130   6.683   1.414
27241W        W80137  27.097  15.994   0.387
27242W        W80138  31.167   8.534   2.939
27243W        W80139  19.004  23.597   9.357
27244W        W80140  10.272   0.319   0.722
27245W        W80141   8.423  23.716   0.474
27246W        W80142  23.565   1.663   3.293
27247W        W80143  24.305  13.053   3.204
27248W        W80144   9.837  25.663   7.710
27249W        W80145  18.356   0.540   9.492
27250W        W80146  21.993   7.093   1.356
27251W        W80147  28.617  13.697   0.259
27252W        W80148  29.637   8.572   8.493
27253W        W80149  23.238  12.290   8.138
27254W        W80150  34.256   5.499   2.902
27255W        W80151   4.240  23.660   0.427
27256W        W80152  31.208   2.246   8.725
27257W        W80153   2.383  18.150   8.857
27258W        W80154  26.782   6.052   8.654
27259W        W80155  27.072  16.462   1.647
27260W        W80156   2.220  15.607   8.726
27261W        W80157  28.639  21.901   2.422
27262W        W80158   0.688  34.303   2.915
27263W        W80159   5.152   6.170   9.402
27264W        W80160  34.129   1.940   2.550
27265W        W80161   9.515  32.506   0.790
27266W        W80162  11.789  26.022   2.737
27267W        W80163  35.021  30.515   7.651
27268W        W80164  35.445  26.081   9.521
27269W        W80165  22.764  14.463   8.421
27270W        W80166   4.657   5.080   2.690
27271W        W80167  24.580  24.913   9.957
27272W        W80168  34.699  26.292   8.081
27273W        W80169  19.888  25.261   0.886
27274W        W80170  20.522  26.992   2.832
27275W        W80171  11.973  32.100   9.713
27276W        W80172  23.080  22.579   8.438
27277W        W80173   3.287   3.158  10.165
27278W        W80174  17.448  20.110   2.093
27279W        W80175  23.760  15.404   2.533
27280W        W80176  28.222   9.193  10.180
27281W        W80177  18.293  24.807   2.176
27282W        W80178  32.301  25.973   0.329
27283W        W80179   0.174  24.829   7.703
27284W        W80180  35.674  20.948   2.270
27285W        W80181  28.870  16.046  10.183
27286W        W80182  28.178  10.256   1.090
27287W        W80183   8.074  29.994   9.226
27288W        W80184  29.897  26.179   1.399
27289W        W80185  29.464  28.880   1.331
27290W        W80186   8.558  23.274   2.310
27291W        W80187  35.608   4.530   8.398
27292W        W80188   4.100  35.912   1.774
27293W        W80189  20.760  28.830   7.741
27294W        W80190   5.823  30.495   8.835
27295W        W80191   7.650  20.848   0.858
27296W        W80192  32.509  35.911   0.686
27297W        W80193   1.381  35.051   7.729
27298W        W80194  26.542   4.772   1.950
27299W        W80195  15.269   0.383   1.726
27300W        W80196  24.681  17.695   3.132
27301W        W80197   1.310  24.992   3.601
27302W        W80198  28.616  17.615   3.213
27303W        W80199  22.941  30.099   8.033
27304W        W80200   3.716  18.696   9.822
27305W        W80201  19.734  17.981   7.990
27306W        W80202  15.748   6.000   1.088
27307W        W80203  13.225  11.628   0.683
27308W        W80204  26.863  29.490   7.269
27309W        W80205  11.740   4.926   2.657
27310W        W80206  34.748  22.346   0.358
27311W        W80207   4.207  32.170   9.929
27312W        W80208  20.101   5.401   2.878
27313W        W80209  35.792   2.387   8.984
27314W        W80210   9.581   9.791   2.932
27315W        W80211   5.463   6.577   2.232
27316W        W80212   7.748  23.027   0.174
27317W        W80213  14.188   0.684   7.109
27318W        W80214  20.022  25.951   3.533
27319W        W80215  27.123  12.867   9.692
27320W        W80216  30.816   0.827   8.464
27321W        W80217   9.397   1.538   9.955
27322W        W80218  32.886  12.249   8.961
27323W        W80219  30.981   2.616   2.328
27324W        W80220  26.649  14.610   2.642
27325W        W80221  20.299  18.724   8.606
27326W        W80222   5.529   4.278   1.529
27327W        W80223  24.997   8.943  10.039
27328W        W80224   2.264   8.519   8.577
27329W        W80225  33.528  35.203   8.376
27330W        W80226  17.824  30.644   0.484
27331W        W80227   1.178  27.512   7.923
27332W        W80228  19.699  24.568   9.759
27333W        W80229  10.971  29.552   1.628
27334W        W80230   3.326  24.527   9.970
27335W        W80231  26.118  28.929   8.575
27336W        W80232   8.005   8.050   9.375
27337W        W80233  25.049  21.483   8.550
27338W        W80234   1.722  13.899   3.620
27339W        W80235  21.137  33.236   9.325
27340W        W80236   2.308  24.977   3.991
27341W        W80237  33.647  17.596  10.299
27342W        W80238   4.262  10.196   9.392
27343W        W80239  31.134   4.142   0.295
27344W        W80240  20.765  10.345   3.338
27345W        W80241  17.749  31.888   2.499
27346W        W80242  10.277  13.090   9.652
27347W        W80243   2.537   8.559   9.454
27348W        W80244  20.674   2.508   3.238
27349W        W80245   0.111  26.796   8.785
27350W        W80246  18.628  12.053   8.664
27351W        W80247   3.154  22.693   0.951
27352W        W80248  26.915  31.730   7.696
27353W        W80249  26.101  10.199   0.162
27354W        W80250  33.886  13.804   2.570
27355W        W80251  17.244   0.781   8.065
27356W        W80252   4.883  11.850   3.857
27357W        W80253  24.602  11.765  10.080
27358W        W80254  10.086  26.756   9.526
27359W        W80255   7.617  22.146   2.504
27360W        W80256  23.528  15.682   8.690
27361W        W80257  31.292   1.202   0.661
27362W        W80258  35.373  24.673   1.799
27363W        W80259   5.439  22.279   2.010
27364W        W80260  18.193   3.178   9.665
27365W        W80261  16.346  32.230   8.610
27366W        W80262  14.006  23.521   1.992
27367W        W80263   7.482  12.432   7.788
27368W        W80264   6.380  29.265   2.687
27369W        W80265   8.985  30.401   9.210
27370W        W80266  13.174  14.452   3.116
27371W        W80267   5.936   3.142   7.639
27372W        W80268  31.050  29.287   3.042
27373W        W80269  34.504  10.051   1.109
27374W        W80270   4.036  32.047   2.872
27375W        W80271  14.012  15.308   8.840
27376W        W80272  28.360  29.731   8.448
27377W        W80273   6.962   7.739   7.187
27378W        W80274  28.676  27.357   9.893
27379W        W80275  18.831  25.820   1.159
27380W        W80276  19.319  13.005   9.337
27381W        W80277  31.576  35.609   0.172
27382W        W80278  17.601  26.140   8.495
27383W        W80279  12.868   3.620   9.345
27384W        W80280   9.124  30.814   9.448
27385W        W80281  13.669  21.143   0.613
27386W        W80282   9.582   4.629   1.753
27387W        W80283   6.990  13.108   2.636
27388W        W80284  35.617  27.769   9.713
27389W        W80285  26.504  21.468   0.110
27390W        W80286  31.839  17.809   8.808
27391W        W80287  26.689   2.699   2.403
27392W        W80288  22.708  21.593   7.974
27393W        W80289  22.689  13.325   9.125
27394W        W80290  29.612  18.138   8.626
27395W        W80291   6.392   4.550   1.605
27396W        W80292  27.306  15.570   8.200
27397W        W80293  25.794   1.580   3.309
27398W        W80294  12.368  32.894   2.453
27399W        W80295  20.964   8.606   9.993
27400W        W80296  11.719  22.714   8.020
27401W        W80297  13.103  23.118   8.267
27402W        W80298  19.769  16.583   9.158
27403W        W80299  21.170  17.207   1.361
27404W        W80300  17.889   9.438   3.242
27405W        W80301  30.307  30.672   2.350
27406W        W80302  15.100  29.273   9.824
27407W        W80303   6.284  28.168   7.489
27408W        W80304  34.530   2.856   2.756
27409W        W80305   2.111  18.635   4.003
27410W        W80306   2.681  34.466   2.852
27411W        W80307  16.011  30.154   8.932
27412W        W80308  19.862  33.017   3.041
27413W        W80309  18.725  13.468   1.691
27414W        W80310   8.760   5.275   0.767
27415W        W80311  16.978  26.821   8.187
27416W        W80312   8.836  26.437   8.483
27417W        W80313   9.987   7.098   2.204
27418W        W80314   4.454  24.864   0.073
27419W        W80315  21.265  35.287   9.915
27420W        W80316   2.554  29.732   7.407
27421W        W80317   2.390  22.940   3.455
27422W        W80318  32.167  16.219   7.640
27423W        W80319   5.472  16.853   1.150
27424W        W80320  34.275  10.891   3.288
27425W        W80321  13.680  15.088   2.835
27426W        W80322   4.093   4.175   8.190
27427W        W80323  33.166  20.688   8.591
27428W        W80324  35.641  21.624   3.305
27429W        W80325  28.914  14.312   2.076
27430W        W80326  34.842  29.969   2.052
27431W        W80327  14.074  29.794   7.342
27432W        W80328   9.486   4.113   9.270
27433W        W80329  17.645  16.833   0.324
27434W        W80330   4.387   2.563   1.357
27435W        W80331  12.788  15.672   8.209
27436W        W80332  11.022   9.720   7.863
27437W        W80333   8.757  20.580   9.559
27438W        W80334   5.407  24.864   9.478
27439W        W80335  17.707  29.942   9.915
27440W        W80336  33.933  17.450   8.777
27441W        W80337  13.326   1.621   0.865
27442W        W80338   3.506  17.112   0.062
27443W        W80339  18.607   8.458   9.321
27444W        W80340  11.040  30.482   2.372
27445W        W80341   0.376  30.083   1.898
27446W        W80342  10.783  14.647   2.059
27447W        W80343  10.452  17.769   1.130
27448W        W80344  10.152  30.456   7.701
27449W        W80345  29.956  31.421   1.373
27450W        W80346  33.947   5.149   0.177
27451W        W80347  33.494  30.791   9.667
27452W        W80348  28.714  12.081   2.938
27453W        W80349  28.487  12.565   7.294
27454W        W80350  21.072  22.221   1.480
27455W        W80351  25.678  22.763   1.360
27456W        W80352  32.028  27.101   8.926
27457W        W80353  28.002  26.367   0.101
27458W        W80354  31.101  22.829   9.723
27459W        W80355   2.352   1.193  10.199
27460W        W80356  26.381  13.931   1.894
27461W        W80357  13.917  32.054  10.189
27462W        W80358  35.095   6.259   7.575
27463W        W80359   4.156  33.588   1.507
27464W        W80360   8.409  10.150   1.504
27465W        W80361   8.819   8.465   0.244
27466W        W80362   4.066  34.573   9.291
27467W        W80363  26.037  27.221   1.041
27468W        W80364  35.332  10.990   8.351
27469W        W80365  22.653  17.905   2.309
27470W        W80366  33.249   0.985   7.030
27471W        W80367  24.788  17.650   2.605
27472W        W80368  18.878  14.467   9.681
27473W        W80369  26.578   3.070   0.583
27474W        W80370   9.736  33.436   8.749
27475W        W80371  16.673  22.534   4.031
27476W        W80372  22.438  10.477   2.456
27477W        W80373  17.425  12.364   7.833
27478W        W80374   0.683   0.134   2.720
27479W        W80375  16.985   6.370   0.435
27480W        W80376  30.820  33.328   1.345
27481W        W80377  17.289  31.529   9.497
27482W        W80378   1.982  14.561   3.984
27483W        W80379  10.870  20.655   0.199
27484W        W80380  13.794  11.458   2.778
27485W        W80381  18.168  15.736   9.240
27486W        W80382  17.694  17.402  10.051
27487W        W80383   9.784   1.166   8.170
27488W        W80384   9.837   7.752   9.581
27489W        W80385  10.965  12.776   2.311
27490W        W80386  34.762   9.719   2.465
27491W        W80387  31.045  30.629   9.441
27492W        W80388   5.853  33.674  10.104
27493W        W80389   2.738   9.168   8.956
27494W        W80390  10.361  29.581   8.515
27495W        W80391  28.560  35.189   2.241
27496W        W80392  20.839  23.300   3.067
27497W        W80393  19.934   9.667   3.164
27498W        W80394  29.681   9.755   1.842
27499W        W80395  11.706   5.266   1.623
27500W        W80396   4.413  35.265   9.183
27501W        W80397  31.633  19.475   9.334
27502W        W80398  25.853  20.676  10.172
27503W        W80399   7.282  18.283   9.945
27504W        W80400   3.444  13.258   0.122
27505W        W80401  20.120  20.920   8.511
27506W        W80402   9.617  19.263   8.215
27507W        W80403   3.655  27.130   0.286
27508W        W80404   8.242   1.090   8.764
27509W        W80405  26.280  28.887   7.154
27510W        W80406  11.449   1.419   7.456
27511W        W80407   7.388  22.872   2.760
27512W        W80408   4.506  15.222   1.546
27513W        W80409   6.215  23.276   0.423
27514W        W80410  25.173  33.902   9.141
27515W        W80411  18.585  11.490   2.989
27516W        W80412   5.059  13.563   1.655
27517W        W80413  29.857   5.842   3.483
27518W        W80414  25.793  20.063   8.933
27519W        W80415   9.592  22.337   1.292
27520W        W80416  10.612  34.030   8.525
27521W        W80417  27.360  27.141   0.414
27522W        W80418   8.537   6.640   0.401
27523W        W80419   4.882  24.530   8.707
27524W        W80420  32.473   8.438   1.981
27525W        W80421  21.463  30.992   0.116
27526W        W80422   9.980   9.470   7.525
27527W        W80423  31.745   4.517   2.665
27528W        W80424   1.269  11.713   2.715
27529W        W80425  11.234  27.387  10.217
27530W        W80426  22.532   1.826  10.264
27531W        W80427  23.379  19.639   3.974
27532W        W80428  35.451  25.407   3.635
27533W        W80429   4.308  19.311   0.941
27534W        W80430  22.271  17.072   0.758
27535W        W80431  35.556  26.627   3.679
27536W        W80432  24.951  33.551   3.044
27537W        W80433  12.410  19.051   1.319
27538W        W80434  30.138   4.589   0.911
27539W        W80435  20.600  20.080   2.950
27540W        W80436   1.750  35.343   8.996
27541W        W80437  33.558   1.573   0.504
27542W        W80438   9.459  31.249   8.270
27543W        W80439  17.446  33.288   1.824
27544W        W80440   9.322  14.828   9.245
27545W        W80441  21.073  13.666   7.822
27546W        W80442   0.503   8.629   1.190
27547W        W80443  16.781   6.760   9.329
27548W        W80444  27.770   0.256   0.278
27549W        W80445   4.413  31.823   8.250
27550W        W80446   0.326   9.844   9.949
27551W        W80447   1.263  15.327   1.285
27552W        W80448  30.225  18.664   1.270
27553W        W80449  10.513  32.706  10.320
27554W        W80450   3.783  14.603   9.709
27555W        W80451  30.328   4.450   9.305
27556W        W80452  35.393   0.291   9.106
27557W        W80453  13.318  16.787   3.008
27558W        W80454   7.382   9.931   0.338
27559W        W80455  19.188  14.770   0.012
27560W        W80456   1.558  28.495   8.821
27561W        W80457  14.332   3.082   1.434
27562W        W80458   5.205  16.427   1.222
27563W        W80459  24.581  15.022   7.590
27564W        W80460  35.448  15.417   0.521
27565W        W80461   0.101   6.118   2.560
27566W        W80462  14.609  34.617   8.449
27567W        W80463   0.886  13.686   3.070
27568W        W80464  33.948   0.892   7.627
27569W        W80465  16.887  19.932   9.565
27570W        W80466  20.594   2.417   2.683
27571W        W80467  35.046   8.901   0.763
27572W        W80468   8.645   7.341   8.674
27573W        W80469  14.505  16.784   1.513
27574W        W80470  16.628  21.993   1.781
27575W        W80471  18.435  17.271   2.269
27576W        W80472  14.596  33.384   7.589
27577W        W80473   1.218  22.582   1.135
27578W        W80474  11.071  18.139   8.607
27579W        W80475  12.805  20.863   2.258
27580W        W80476  13.749  33.472   9.020
27581W        W80477  24.387  25.682   3.003
27582W        W80478  17.253  17.421   2.533
27583W        W80479  27.796  35.262   0.474
27584W        W80480   5.379  22.049   2.576
27585W        W80481  23.055  26.728   7.770
27586W        W80482  31.908  17.969   1.614
27587W        W80483  25.832   0.487   8.102
27588W        W80484   8.742   4.214   8.372
27589W        W80485  16.261   8.610   3.462
27590W        W80486  31.145  12.176   9.212
27591W        W80487  11.244   5.309   8.157
27592W        W80488  15.120  14.881   7.496
27593W        W80489  28.257  27.626   7.424
27594W        W80490   6.661  17.128   9.378
27595W        W80491  18.061   0.780   7.972
27596W        W80492   7.062  33.962   8.673
27597W        W80493   8.884  10.071   9.711
27598W        W80494  27.419  33.226   0.765
27599W        W80495  26.671  28.160   2.380
27600W        W80496   2.739   5.668   0.548
27601W        W80497  11.277  30.848   8.974
27602W        W80498  25.043  20.430   8.456
27603W        W80499  24.177  22.004   9.072
27604W        W80500   6.373  26.506   9.681
27605W        W80501  33.754  18.846  10.008
27606W        W80502  31.149  20.734   0.120
27607W        W80503   5.248  24.697   9.035
27608W        W80504  12.279  17.786   7.737
27609W        W80505  21.787  20.286   2.376
27610W        W80506  26.502  19.291   0.754
27611W        W80507  24.882  19.678   3.738
27612W        W80508  19.317  32.520  10.064
27613W        W80509   6.587  23.158   0.172
27614W        W80510  12.347  11.792   7.358
27615W        W80511  35.503  24.259   1.583
27616W        W80512   0.712  27.654   8.780
27617W        W80513  30.137   7.142   9.593
27618W        W80514  25.039  28.171   8.206
27619W        W80515   5.009   5.934   7.650
27620W        W80516   1.526   2.237   8.145
27621W        W80517  18.910  13.216   9.405
27622W        W80518   0.269  12.315   2.808
27623W        W80519  24.560  15.495   2.756
27624W        W80520   3.357   5.202   2.206
27625W        W80521  28.756  35.082   7.923
27626W        W80522   6.400  20.126   9.449
27627W        W80523   1.723  15.831   7.991
27628W        W80524  21.299   9.454   8.245
27629W        W80525   8.849   5.964   8.611
27630W        W80526  12.277  26.362   1.591
27631W        W80527  22.291   7.729   2.046
27632W        W80528   7.774   4.089   8.302
27633W        W80529  34.483   9.218   1.329
27634W        W80530   6.708   2.029   8.494
27635W        W80531  15.015  32.040   8.831
27636W        W80532  17.979  26.147   2.268
27637W        W80533  15.371   2.900   0.556
27638W        W80534  31.900   2.263   7.660
27639W        W80535   2.049  35.272   9.358
27640W        W80536   0.603   8.027   9.285
27641W        W80537   5.366  28.471   9.390
27642W        W80538  35.097  12.830   9.078
27643W        W80539   1.377  11.497   0.647
27644W        W80540  14.542  33.186   0.719
27645W        W80541   0.860  32.744   2.207
27646W        W80542  13.226  24.762   8.859
27647W        W80543  22.214  25.150   0.562
27648W        W80544  20.767   9.969   3.001
27649W        W80545  15.053   7.020   2.004
27650W        W80546   0.981   6.848   3.187
27651W        W80547  30.185  34.157   8.328
27652W        W80548  34.950  23.992   2.672
27653W        W80549  13.350  30.571   7.408
27654W        W80550   7.908   2.877   8.436
27655W        W80551  22.987  18.481   9.976
27656W        W80552   3.385  29.373   8.869
27657W        W80553   7.739   3.676   2.083
27658W        W80554   8.479  12.467   7.906
27659W        W80555  15.790  29.550   9.495
27660W        W80556  22.765  26.554   2.322
27661W        W80557  27.239  33.549   7.698
27662W        W80558  24.305   7.910   9.599
27663W        W80559   3.297  14.763   1.199
27664W        W80560  25.958  15.972   7.915
27665W        W80561  16.308  21.223   2.977
27666W        W80562  16.368  26.567  10.082
27667W        W80563  20.825   6.817   3.402
27668W        W80564   0.457  22.832   0.700
27669W        W80565  12.557  16.311   1.214
27670W        W80566  22.472  17.893   9.506
27671W        W80567   8.888  17.873   9.003
27672W        W80568  21.204  12.094   1.510
27673W        W80569  33.777  29.179   9.986
27674W        W80570  13.340   1.858   9.732
27675W        W80571   7.207  28.639  10.276
27676W        W80572  12.925  17.993   2.802
27677W        W80573  10.272  13.779   0.408
27678W        W80574  23.336  13.031   2.390
27679W        W80575  23.993  12.511   0.167
27680W        W80576  13.910  33.860   0.401
27681W        W80577  31.282  24.416   8.736
27682W        W80578  20.378  29.456   2.021
27683W        W80579   3.533  22.301   1.141
27684W        W80580  14.836  16.299   8.624
27685W        W80581  31.920   9.902   8.275
27686W        W80582  10.411  25.281   9.063
27687W        W80583  29.446  13.121   9.426
27688W        W80584  27.063   6.229   9.880
27689W        W80585  12.563  10.406   1.975
27690W        W80586  25.803  18.090   9.784
27691W        W80587  34.561  20.551   3.826
27692W        W80588  33.067  22.817   9.450
27693W        W80589  22.935  22.463   0.725
27694W        W80590  20.103  32.173   2.403
27695W        W80591  20.848  30.974   9.367
27696W        W80592  33.478  14.984   8.549
27697W        W80593  15.103  22.386   9.913
27698W        W80594  34.461  11.269   9.135
27699W        W80595   6.078   8.061   1.596
27700W        W80596  16.053   8.150   3.764
27701W        W80597  29.593  11.776   3.447
27702W        W80598  22.429  30.656  10.285
27703W        W80599  32.715   6.843   7.622
27704W        W80600  24.644  28.967   0.187
27705W        W80601  16.098  21.540   9.826
27706W        W80602  24.447  10.102   9.647
27707W        W80603  29.039  33.619   3.242
27708W        W80604  16.588  13.530   0.054
27709W        W80605  15.401  17.972   3.702
27710W        W80606   4.985   4.725   2.569
27711W        W80607  26.650  10.858   9.510
27712W        W80608  31.460   3.834   8.139
27713W        W80609  28.946  26.451   9.277
27714W        W80610  11.660  30.325  10.217
27715W        W80611  26.178   5.599   2.043
27716W        W80612   8.173  25.633   9.472
27717W        W80613  34.586   0.105   7.727
27718W        W80614  10.694  28.839   7.258
27719W        W80615  10.188  16.736   3.302
27720W        W80616   6.506  34.404   1.759
27721W        W80617   1.975  27.169  10.130
27722W        W80618  24.248   7.876   1.544
27723W        W80619  23.255   2.968   8.445
27724W        W80620  34.410  35.417   8.406
27725W        W80621  17.533  23.952  10.141
27726W        W80622  28.260  21.919   7.957
27727W        W80623  25.727  23.139   9.619
27728W        W80624  30.832  18.290   1.910
27729W        W80625  30.402  10.867   1.522
27730W        W80626   2.033  19.835   2.117
27731W        W80627   2.855  21.246   0.186
27732W        W80628   6.115  27.985  10.321
27733W        W80629   3.295  23.285   2.703
27734W        W80630  26.985  35.268   9.240
27735W        W80631  14.347  21.418   1.606
27736W        W80632  17.221  20.849   3.463
27737W        W80633  27.123  33.005  10.035
27738W        W80634  31.591  16.251   1.079
27739W        W80635   1.122  18.443  10.026
27740W        W80636  31.185   0.974   3.099
27741W        W80637   8.653   6.196   3.472
27742W        W80638   6.365   5.731   0.273
27743W        W80639   9.879  23.262   2.881
27744W        W80640  28.073  20.243   9.268
27745W        W80641  31.271  33.214   1.580
27746W        W80642   6.121  29.891   1.794
27747W        W80643  12.780   6.195   2.515
27748W        W80644  14.662  10.945   0.498
27749W        W80645  32.629  19.774  10.280
27750W        W80646  29.830  23.701   7.765
27751W        W80647   0.421  23.206   7.675
27752W        W80648  16.433  17.096   9.227
27753W        W80649   1.958  32.571  10.297
27754W        W80650  16.812  24.947   9.102
27755W        W80651   1.579  34.142   1.883
27756W        W80652   5.039   1.072   8.906
27757W        W80653  22.670  23.819   0.535
27758W        W80654   9.790   8.090   3.676
27759W        W80655  13.976  12.039   7.573
27760W        W80656  34.532   5.332   3.720
27761W        W80657   0.681  32.336   2.449
27762W        W80658  28.985  35.429   3.653
27763W        W80659  27.314  30.268   2.259
27764W        W80660  23.001   9.280   0.246
27765W        W80661   7.885  18.981   0.924
27766W        W80662  27.171  25.264   0.204
27767W        W80663  20.975  32.119   8.766
27768W        W80664  20.842  29.579   9.552
27769W        W80665   7.785   9.979   9.745
27770W        W80666  12.055  16.760   2.328
27771W        W80667   3.161  34.577   3.252
27772W        W80668   0.230   8.563   0.009
27773W        W80669  20.378   8.342   2.874
27774W        W80670   8.492   0.152   0.879
27775W        W80671   8.569  26.930   0.490
27776W        W80672  33.409  27.610   0.131
27777W        W80673  17.338  31.866   0.885
27778W        W80674   6.513  35.014   0.879
27779W        W80675  30.970  31.560   1.309
27780W        W80676   3.625   6.606   2.677
27781W        W80677   1.146   9.417   9.194
27782W        W80678  33.269  24.960   3.178
27783W        W80679  22.987  14.845   8.011
27784W        W80680  19.127   6.759   1.257
27785W        W80681  23.122   5.162   8.411
27786W        W80682  11.999  27.178   8.286
27787W        W80683  19.863  26.608   8.711
27788W        W80684   3.742   5.560   9.960
27789W        W80685  18.171  14.229   8.335
27790W        W80686  34.830   1.851   8.731
27791W        W80687  21.791  20.100   1.692
27792W        W80688  24.429  28.365   9.666
27793W        W80689  11.219  31.208   2.187
27794W        W80690  24.802   8.444  10.036
27795W        W80691  16.011  30.904   1.192
27796W        W80692   9.069  28.031   1.513
27797W        W80693  27.323  18.324   2.459
27798W        W80694  35.478  30.678   0.324
27799W        W80695   6.563  19.652   8.595
27800W        W80696   5.004  32.485   9.929
27801W        W80697  27.692  15.913   0.942
27802W        W80698  19.408  34.224   8.300
27803W        W80699   4.979  20.798  10.280
27804W        W80700  11.966   7.933   9.414
27805W        W80701   5.399  11.558   1.382
27806W        W80702  12.753  15.269   2.798
27807W        W80703  21.617   5.463   3.000
27808W        W80704  33.239   0.208   0.263
27809W        W80705  11.584   2.217   1.557
27810W        W80706  26.647  18.863   0.693
27811W        W80707  19.604  16.737   0.613
27812W        W80708  25.269  22.841   7.511
27813W        W80709  19.818  27.714   2.611
27814W        W80710   7.113  24.753   1.645
27815W        W80711  33.707  30.921   1.947
27816W        W80712  34.585  23.414  10.005
27817W        W80713  35.851  25.091   2.696
27818W        W80714  11.702  11.789   8.217
27819W        W80715  26.593   7.303   9.269
27820W        W80716  28.975  21.130   0.617
27821W        W80717  25.635  26.468   8.352
27822W        W80718   7.051  17.685   2.639
27823W        W80719  25.741  24.345   0.590
27824W        W80720  28.437  16.108   3.334
27825W        W80721  23.684  33.751   1.989
27826W        W80722  17.418  27.094   9.168
27827W        W80723  12.068  35.611   8.130
27828W        W80724  12.555  16.901   0.248
27829W        W80725   7.748  10.994   8.599
27830W        W80726  22.799   6.165   2.291
27831W        W80727  10.925  35.686   3.113
27832W        W80728  33.814   2.012   1.682
27833W        W80729  34.158  16.579  10.214
27834W        W80730  29.252   2.702   0.446
27835W        W80731  28.591  21.078   1.957
27836W        W80732  21.034  29.301   8.690
27837W        W80733  10.490  28.696  10.181
27838W        W80734  31.194  26.725   8.673
27839W        W80735   2.402  12.120   2.689
27840W        W80736  26.909  18.188   8.948
27841W        W80737  17.423   8.444   1.288
27842W        W80738   9.805   7.157   2.752
27843W        W80739   7.815  15.792   1.809
27844W        W80740   0.350  35.615   8.465
27845W        W80741   0.299  19.622   9.592
27846W        W80742  28.760  29.429   1.555
27847W        W80743   3.187  27.330   8.857
27848W        W80744  21.930  21.203   3.140
27849W        W80745  24.022  12.043   9.171
27850W        W80746  24.998  15.267   7.437
27851W        W80747  24.974  29.441   9.924
27852W        W80748  24.218   8.104   8.257
27853W        W80749   0.863  29.397   3.587
27854W        W80750   9.924  35.412   8.617
27855W        W80751   9.910   2.454   1.074
27856W        W80752  31.913   8.612   2.026
27857W        W80753   8.000  32.296   2.784
27858W        W80754   0.943  22.884   0.317
27859W        W80755  12.443  27.287  10.287
27860W        W80756  23.626  10.971   7.908
27861W        W80757  35.135   0.439   3.018
27862W        W80758  11.141  24.282   1.136
27863W        W80759   5.836  12.357   2.410
27864W        W80760  25.959  28.870   2.092
27865W        W80761  17.913   5.942   9.156
27866W        W80762   3.457  26.005   2.490
27867W        W80763   8.362  28.176   9.826
27868W        W80764  12.421  29.580   8.083
27869W        W80765   5.983   3.629   8.435
27870W        W80766   0.458   7.606   8.165
27871W        W80767  31.496  35.459   1.837
27872W        W80768   3.897   5.966   8.783
27873W        W80769  10.772  18.100   7.713
27874W        W80770  11.916  12.343   9.098
27875W        W80771  23.584  30.395   2.731
27876W        W80772   8.644  18.338   9.382
27877W        W80773   3.722  11.859  10.247
27878W        W80774  12.642  16.114   0.744
27879W        W80775  30.346   2.176   1.661
27880W        W80776  18.301  18.433   1.816
27881W        W80777  29.054  27.055   0.223
27882W        W80778  31.083  20.976   9.989
27883W        W80779  17.605  30.761   1.585
27884W        W80780  25.665  33.115   9.212
27885W        W80781  19.626   8.778   2.398
27886W        W80782   7.358  15.849   1.085
27887W        W80783   2.303   5.889   0.175
27888W        W80784   2.831  16.676   2.624
27889W        W80785   3.244  29.622   2.586
27890W        W80786   5.501  31.633   2.086
27891W        W80787   2.238  29.739   9.560
27892W        W80788  30.456  10.114   3.655
27893W        W80789  19.961  22.006   3.634
27894W        W80790   9.637  13.695   2.428
27895W        W80791  12.857  30.584   0.681
27896W        W80792  17.781  11.788   0.575
27897W        W80793   3.371   3.509   8.515
27898W        W80794   7.937   8.609   8.980
27899W        W80795  29.253  24.703   8.427
27900W        W80796   9.092   5.494   0.408
27901W        W80797   2.682  19.765   1.273
27902W        W80798   1.457   3.567   8.122
27903W        W80799  31.346  35.920   0.528
27904W        W80800  25.486  33.218   9.691
27905W        W80801  19.163  29.037   0.949
27906W        W80802   2.588  33.790  10.168
27907W        W80803  23.645  32.574   7.672
27908W        W80804  12.970  14.066   2.350
27909W        W80805  28.374   1.277   1.016
27910W        W80806   5.581  21.088   7.639
27911W        W80807  16.206  27.393   0.089
27912W        W80808   0.413  31.637   1.117
27913W        W80809  17.325  25.707   2.771
27914W        W80810   4.707   5.456   1.833
27915W        W80811  33.910  35.721   7.719
27916W        W80812  19.669   4.522   9.407
27917W        W80813  20.724  15.225  10.170
27918W        W80814   8.852   3.320   8.298
27919W        W80815   5.619  19.367   8.837
27920W        W80816  34.071  35.085   7.300
27921W        W80817   8.670  18.800   9.097
27922W        W80818  31.760  10.537   9.156
27923W        W80819  13.046   6.634   2.558
27924W        W80820  14.022  18.500   1.417
27925W        W80821   5.009  15.814   8.102
27926W        W80822  21.847  25.414   1.814
27927W        W80823  22.173  26.636   9.443
27928W        W80824   0.890   3.407   3.054
27929W        W80825   8.263  12.935  10.165
27930W        W80826  33.548  24.707   0.421
27931W        W80827   0.285   4.409   9.180
27932W        W80828  12.971  33.717   9.010
27933W        W80829  16.927  19.197   1.511
27934W        W80830   4.309  16.029   9.772
27935W        W80831  29.433  34.317   1.597
27936W        W80832  14.009  13.502   1.658
27937W        W80833   0.060  33.550   0.206
27938W        W80834  18.018  17.276   8.387
27939W        W80835  12.127  25.874   2.425
27940W        W80836   6.775  20.256   0.643
27941W        W80837  26.924   0.674   9.101
27942W        W80838  13.370   0.159   0.273
27943W        W80839  25.034  19.064   0.948
27944W        W80840   5.158  28.727   0.737
27945W        W80841  17.130   3.520   7.804
27946W        W80842  10.197   8.128   9.229
27947W        W80843   8.451  24.158   2.488
27948W        W80844   6.414  10.739   2.125
27949W        W80845   0.846  18.304   0.346
27950W        W80846   1.757  34.661   2.737
27951W        W80847  14.504   3.485   3.026
27952W        W80848  29.627  24.832   9.533
27953W        W80849  26.147  21.779   0.405
27954W        W80850  26.401   8.977   7.877
27955W        W80851  33.011  34.829   3.151
27956W        W80852  18.173  32.264   3.720
27957W        W80853  10.862  21.218   1.649
27958W        W80854  33.396  24.121  10.299
27959W        W80855   0.402  31.096   4.105
27960W        W80856  17.345   2.121   9.440
27961W        W80857   1.587  28.659   7.432
27962W        W80858  32.208  18.283   2.508
27963W        W80859  32.921  31.830   8.552
27964W        W80860  23.475  23.253   0.280
27965W        W80861   7.672  20.864   8.621
27966W        W80862  30.440  30.956  10.278
27967W        W80863  31.703   2.431   2.212
27968W        W80864  19.226   5.516   2.498
27969W        W80865  20.350  33.871   9.401
27970W        W80866  33.783  20.035   3.572
27971W        W80867  14.405  14.922  10.163
27972W        W80868  12.290  18.307   7.721
27973W        W80869  18.906  30.352   8.861
27974W        W80870   5.982  30.372   1.987
27975W        W80871  28.821   3.638   1.409
27976W        W80872   0.852   7.196   8.480
27977W        W80873  18.493   4.812   2.844
27978W        W80874  15.984  24.365  10.129
27979W        W80875  18.672  35.232   8.810
27980W        W80876  11.292   6.968   8.674
27981W        W80877  20.370   3.909   2.630
27982W        W80878  10.067  29.470   9.614
27983W        W80879   8.385  29.340   1.289
27984W        W80880   5.376  23.711   1.314
27985W        W80881  11.343   9.204   8.548
27986W        W80882  19.161  15.706   0.921
27987W        W80883  17.499   8.018   3.763
27988W        W80884  24.690  22.509   2.681
27989W        W80885  32.509  31.351   8.650
27990W        W80886  22.243  13.109   0.405
27991W        W80887  29.565  33.677   8.506
27992W        W80888  11.991  25.038   0.838
27993W        W80889  27.959  14.411   9.378
27994W        W80890  32.729  17.138   3.332
27995W        W80891  24.199   6.023   0.585
27996W        W80892   4.789  20.142   9.688
27997W        W80893   6.629  14.637   8.584
27998W        W80894  17.294  14.702   8.481
27999W        W80895  30.846  20.358   9.099
28000W        W80896   8.378  30.600   8.878
28001W        W80897   6.510   0.433   9.328
28002W        W80898  13.210  35.262   7.872
28003W        W80899  35.010  12.579   8.452
28004W        W80900  33.885   4.298   8.868
28005W        W80901  14.614  21.983   7.629
28006W        W80902  27.196  28.748   0.869
28007W        W80903  10.349   4.884   8.394
28008W        W80904  35.071  31.424   8.764
28009W        W80905  12.109  34.800   7.746
28010W        W80906  32.483  25.256   1.423
28011W        W80907  26.266  16.882   7.257
28012W        W80908   2.401  33.303   9.852
28013W        W80909  25.438  21.809   8.739
28014W        W80910  31.901  35.204   8.513
28015W        W80911  26.670   1.088   3.433
28016W        W80912  35.190  32.001   2.255
28017W        W80913  14.115  11.047   8.479
28018W        W80914  10.940  14.881   9.296
28019W        W80915  31.910  27.324   7.227
28020W        W80916  35.593   2.039   9.359
28021W        W80917  28.554   4.290   3.408
28022W        W80918  35.984  31.279   3.167
28023W        W80919  18.060  21.107   0.378
28024W        W80920   7.035  16.254   2.775
28025W        W80921  16.459  27.442   9.970
28026W        W80922   0.782  28.709   1.948
28027W        W80923  19.336  23.337   1.197
28028W        W80924  32.479   9.323   3.495
28029W        W80925  22.264  31.164   8.134
28030W        W80926  29.701  25.487  10.302
28031W        W80927   7.384   2.549  10.240
28032W        W80928  31.845  17.335   0.425
28033W        W80929  33.864  25.972   7.736
28034W        W80930   2.002  16.528   8.077
28035W        W80931  33.470   4.394   0.401
28036W        W80932   1.678   7.394   8.047
28037W        W80933  16.985  21.433   3.190
28038W        W80934   4.104  25.380   7.990
28039W        W80935  10.251  21.215   7.482
28040W        W80936   0.306  13.150   8.146
28041W        W80937  18.866  27.705   7.833
28042W        W80938  23.612   4.888   7.753
28043W        W80939  16.525   1.618   0.771
28044W        W80940  23.979   0.732   1.679
28045W        W80941  11.902   5.704   1.404
28046W        W80942   0.563   0.947   2.302
28047W        W80943  10.893  25.430   8.226
28048W        W80944  18.562   7.475   2.239
28049W        W80945   9.270  28.304   9.422
28050W        W80946  27.829  20.726   8.655
28051W        W80947  30.236  23.381   7.817
28052W        W80948   7.725  32.861   7.988
28053W        W80949  30.989  13.364  10.247
28054W        W80950  31.091   0.221   2.693
28055W        W80951   8.997   6.067   2.062
28056W        W80952  12.270  18.111  10.054
28057W        W80953  18.664  28.730   1.575
28058W        W80954  29.755  13.185   8.258
28059W        W80955  24.465  22.819   1.605
28060W        W80956  28.116  14.146   0.892
28061W        W80957  11.791   1.114   9.689
28062W        W80958  13.609  35.776   0.419
28063W        W80959  18.108  11.569   0.998
28064W        W80960  23.275   4.342  10.012
28065W        W80961  26.955  10.633   3.283
28066W        W80962  35.588  29.903   8.556
28067W        W80963  10.479  12.898   1.745
28068W        W80964  22.351  23.760   0.926
28069W        W80965  32.211  15.237  10.177
28070W        W80966  18.082  35.922   1.771
28071W        W80967   3.130  12.562   2.970
28072W        W80968  16.308  14.087   9.194
28073W        W80969  35.767  17.487   0.081
28074W        W80970  20.813   8.815   3.190
28075W        W80971  33.410   2.397   3.026
28076W        W80972  20.263  32.131   8.137
28077W        W80973  11.310  33.719   9.616
28078W        W80974  35.815  17.062   0.410
28079W        W80975  16.913   2.357   2.748
28080W        W80976  17.831  21.113   2.938
28081W        W80977   8.706  33.710   1.192
28082W        W80978  17.688  31.507   0.696
28083W        W80979  30.441   2.767   9.431
28084W        W80980  27.998  17.921   8.090
28085W        W80981  31.118  17.751   8.876
28086W        W80982  16.494  28.120   1.442
28087W        W80983  22.073  20.027   0.947
28088W        W80984  22.098  17.377   1.724
28089W        W80985  14.129  11.605   2.236
28090W        W80986  17.968  30.769   1.920
28091W        W80987  17.139   7.629   1.042
28092W        W80988  24.417   9.748   1.453
28093W        W80989   0.478  11.116   2.943
28094W        W80990  15.890  31.890   7.346
28095W        W80991   9.170  25.530   8.469
28096W        W80992  12.733  22.865   0.380
28097W        W80993  19.872  27.602   8.885
28098W        W80994  19.173  27.197   2.559
28099W        W80995  28.330   6.942   2.724
28100W        W80996  18.522  14.103   8.806
28101W        W80997  14.340   1.525   9.845
28102W        W80998  15.281   5.638   0.142
28103W        W80999   9.816  34.683   2.072
28104W        W81000  34.439   9.670   6.949
28105W        W81001  30.337  24.457   2.114
28106W        W81002   2.978  29.436   0.706
28107W        W81003   5.811  32.825   0.025
28108W        W81004   9.268  26.569   8.777
28109W        W81005  19.148   3.226   9.699
28110W        W81006  27.871   0.401   2.621
28111W        W81007   2.063  13.472   0.275
28112W        W81008  23.037  20.838   8.540
28113W        W81009  30.978  33.665   9.052
28114W        W81010  17.647  18.106  10.287
28115W        W81011   2.399  13.033   3.074
28116W        W81012   6.068  12.521   3.419
28117W        W81013  32.982  28.182   8.530
28118W        W81014  16.111  13.446   3.588
28119W        W81015  35.186  25.817   1.065
28120W        W81016  35.934  10.681  10.099
28121W        W81017   8.153  32.948   8.110
28122W        W81018  14.983  35.798   7.769
28123W        W81019  30.627   1.861   0.796
28124W        W81020  23.037  27.860   8.665
28125W        W81021  27.417   8.217   3.573
28126W        W81022  25.484  18.014   2.922
28127W        W81023  33.420   1.021   1.795
28128W        W81024  13.124   5.393  10.217
28129W        W81025  30.495  17.946   0.069
28130W        W81026  19.661  25.394   0.070
28131W        W81027  15.694  34.360   9.033
28132W        W81028  26.986  29.426  10.289
28133W        W81029  24.612  32.020   9.501
28134W        W81030  35.491  35.192   2.152
28135W        W81031  19.507  10.559   1.599
28136W        W81032   1.993  29.328   3.231
28137W        W81033  32.738   3.026   1.700
28138W        W81034  20.645   8.287   9.633
28139W        W81035  17.596  35.844   1.579
28140W        W81036  32.664  10.933   2.299
28141W        W81037  28.566  30.841   9.562
28142W        W81038  12.599   6.773   2.743
28143W        W81039  23.446  35.443  10.120
28144W        W81040   2.953  16.278   1.086
28145W        W81041  14.595  32.221   3.022
28146W        W81042   0.263  17.477   1.064
28147W        W81043  11.139  32.448   8.536
28148W        W81044  20.701  24.967   7.937
28149W        W81045   2.332   4.690   7.635
28150W        W81046  15.214   8.790   3.512
28151W        W81047   5.847  21.365   9.011
28152W        W81048  20.276  30.791   3.340
28153W        W81049   9.899   9.381   0.201
28154W        W81050  16.652   9.290   1.582
28155W        W81051   3.718   5.854   7.746
28156W        W81052   1.125   4.919   8.213
28157W        W81053  12.339  23.888   6.978
28158W        W81054   2.141   6.437   0.493
28159W        W81055  22.130  25.745   2.092
28160W        W81056  21.405  12.221   8.882
28161W        W81057  31.082  18.693   1.807
28162W        W81058  14.853  22.103   1.052
28163W        W81059   8.694   3.127   7.507
28164W        W81060  25.769  18.130   3.377
28165W        W81061   4.692  33.031   1.669
28166W        W81062   7.237  34.392   8.542
28167W        W81063  14.974  17.239   8.004
28168W        W81064   1.060   3.865  10.157
28169W        W81065  13.005  25.681   9.880
28170W        W81066   9.550  17.703   2.046
28171W        W81067  26.432  14.118   8.227
28172W        W81068  10.322   7.172   2.997
28173W        W81069   2.064  35.493   8.135
28174W        W81070   1.075   0.027   7.881
28175W        W81071  18.681  32.538   1.898
28176W        W81072  16.700   9.402   2.080
28177W        W81073   9.926  19.358   7.826
28178W        W81074  10.369   8.697   2.266
28179W        W81075  21.745   9.711  10.134
28180W        W81076  30.347  31.521   1.782
28181W        W81077   0.067  12.958   2.380
28182W        W81078  17.330  11.097   8.829
28183W        W81079   9.891  16.117   8.705
28184W        W81080  12.371   0.193   8.483
28185W        W81081   2.061  22.249   9.011
28186W        W81082  35.034  15.334   8.059
28187W        W81083  13.431  22.359   0.898
28188W        W81084  20.707  16.182   2.131
28189W        W81085  29.928   1.610   8.459
28190W        W81086   4.682  23.216   7.933
28191W        W81087  15.179  14.912   1.782
28192W        W81088  29.121  13.635   7.957
28193W        W81089   9.316  10.243   9.560
28194W        W81090   3.808   8.283   9.873
28195W        W81091  25.465  20.802   2.873
28196W        W81092   1.024  26.513   2.840
28197W        W81093   0.287  23.787   1.784
28198W        W81094   8.296  12.027   1.469
28199W        W81095  25.399  10.669   1.236
28200W        W81096  30.152  32.757   1.125
28201W        W81097  22.640  35.423   2.551
28202W        W81098  22.239   2.507   1.562
28203W        W81099  19.762  32.044   1.998
28204W        W81100  16.283   7.855   1.139
28205W        W81101  30.815   6.378   8.670
28206W        W81102  28.874  19.344   0.681
28207W        W81103  33.478  29.708   8.373
28208W        W81104  20.505  32.206   0.424
28209W        W81105  24.212  21.520   9.831
28210W        W81106  13.361  15.596   1.166
28211W        W81107  27.155  16.635   9.599
28212W        W81108   8.945   5.251   3.089
28213W        W81109   9.627  32.780   2.510
28214W        W81110  34.004  11.486   3.312
28215W        W81111  15.196  16.455   8.333
28216W        W81112  32.421  23.373   8.908
28217W        W81113  25.549  11.448   1.766
28218W        W81114  16.874   5.244   8.224
28219W        W81115  16.274  23.848   9.316
28220W        W81116  23.576  18.329   2.365
28221W        W81117   7.790  28.935   7.554
28222W        W81118   9.256  31.569   0.354
28223W        W81119   9.783  13.382   9.706
28224W        W81120  11.597  19.540   1.520
28225W        W81121  25.881  10.171   2.235
28226W        W81122  23.526  20.926   0.088
28227W        W81123   0.077   6.793  10.080
28228W        W81124  30.164   7.570   7.766
28229W        W81125   5.535  25.609   3.092
28230W        W81126  24.306   0.538   0.241
28231W        W81127  17.580   5.366   8.592
28232W        W81128  23.906  20.590   0.840
28233W        W81129  21.935  34.093   7.222
28234W        W81130   7.301   3.888   8.045
28235W        W81131  24.818  28.959   9.917
28236W        W81132  24.522  18.808   0.958
28237W        W81133  35.431  32.301   7.460
28238W        W81134   5.397  19.944   1.344
28239W        W81135  18.834  32.222   0.971
28240W        W81136   7.851  29.847   8.357
28241W        W81137  18.218  28.171   7.795
28242W        W81138  16.277  27.553   2.428
28243W        W81139  18.843   5.422   1.154
28244W        W81140   4.821  16.954   3.281
28245W        W81141   1.060  16.967   9.335
28246W        W81142  29.682   1.521   9.734
28247W        W81143  23.437  12.598   8.867
28248W        W81144  32.229  17.665   8.263
28249W        W81145  30.877  11.332   8.579
28250W        W81146  12.108   4.580   2.358
28251W        W81147  21.461  10.902   7.623
28252W        W81148   8.911  17.457   8.643
28253W        W81149  10.346  13.231   2.992
28254W        W81150  21.139   5.033   2.093
28255W        W81151  31.133  20.504   0.579
28256W        W81152  13.546   2.893   0.859
28257W        W81153   3.638  12.589   2.828
28258W        W81154   5.918  14.920   0.150
28259W        W81155  21.331   9.279   0.046
28260W        W81156   1.992   6.297   3.237
28261W        W81157  27.969   1.341   9.870
28262W        W81158   6.655   3.755   7.172
28263W        W81159   7.151  32.457   9.258
28264W        W81160  11.041  11.113   9.098
28265W        W81161  34.246  29.367   9.830
28266W        W81162  11.625  28.740   7.257
28267W        W81163  33.792   7.512   2.032
28268W        W81164  20.237   4.693   1.119
28269W        W81165   8.961  31.351   8.267
28270W        W81166  13.746  11.505   1.488
28271W        W81167   1.733  19.139   1.952
28272W        W81168  27.900  17.288   1.463
28273W        W81169   2.620  34.285   8.718
28274W        W81170  10.727   6.906   9.926
28275W        W81171  30.967   9.548   7.561
28276W        W81172  24.950  27.763   9.260
28277W        W81173  28.798   2.419   0.656
28278W        W81174  30.787  13.401   8.574
28279W        W81175   9.280  34.754   7.040
28280W        W81176   7.382  31.060   7.824
28281W        W81177   2.381   5.427  10.170
28282W        W81178   6.629  20.460   1.865
28283W        W81179  33.619  12.675   3.158
28284W        W81180   4.648  21.536   3.276
28285W        W81181   4.730  12.826   8.815
28286W        W81182   7.112  24.199   0.500
28287W        W81183  28.822   7.965  10.201
28288W        W81184  16.424  20.146   9.464
28289W        W81185   6.731  29.284   0.100
28290W        W81186  24.634  27.246   7.920
28291W        W81187  21.157  22.961   8.845
28292W        W81188  14.569  13.855   1.016
28293W        W81189  11.056  27.282   2.276
28294W        W81190  21.494  25.453   9.762
28295W        W81191  17.970  11.408   8.576
28296W        W81192   1.681  12.509   8.354
28297W        W81193  22.503   9.527   3.082
28298W        W81194  31.220  18.936   2.186
28299W        W81195  31.194   9.921   0.813
28300W        W81196  24.006   7.382   2.284
28301W        W81197   1.191   3.869   1.366
28302W        W81198  14.488   0.854   0.705
28303W        W81199  32.581  32.373   8.621
28304W        W81200  31.794   1.009   8.622
28305W        W81201  25.175  24.790   1.228
28306W        W81202  15.283   0.402   9.963
28307W        W81203   1.271  10.710   1.613
28308W        W81204  27.023  29.189   8.044
28309W        W81205  12.178  12.387   2.773
28310W        W81206  29.323  27.171   1.252
28311W        W81207   7.647  24.552   7.181
28312W        W81208  16.845   0.348   2.080
28313W        W81209  10.164   6.950   0.777
28314W        W81210  12.060  10.603   8.718
28315W        W81211  11.445   1.902   9.769
28316W        W81212  10.806  30.940   8.331
28317W        W81213   9.335   5.309   0.979
28318W        W81214  31.332  30.981   9.204
28319W        W81215  23.273   6.393   0.907
28320W        W81216  28.135  33.250   8.164
28321W        W81217  15.502   3.675   9.504
28322W        W81218  15.000  35.335   2.748
28323W        W81219   4.392  21.576   2.867
28324W        W81220  26.247  22.475  10.073
28325W        W81221  12.242   2.138   1.599
28326W        W81222  29.153  30.942   0.912
28327W        W81223  31.681  10.987   1.614
28328W        W81224  19.374   4.442   8.128
28329W        W81225  17.484  21.015   1.229
28330W        W81226  19.991  24.624   1.633
28331W        W81227  11.353   4.738   9.273
28332W        W81228  30.571  22.446   2.910
28333W        W81229  33.848  29.736   1.994
28334W        W81230   8.707  27.012   1.139
28335W        W81231  23.257   6.043   2.522
28336W        W81232  30.800  25.725   7.685
28337W        W81233  17.856  18.160   1.933
28338W        W81234  19.048  32.065   9.886
28339W        W81235  34.710  12.555   1.444
28340W        W81236  11.743  25.699   8.792
28341W        W81237  20.103  20.284   2.968
28342W        W81238  10.881   6.410   3.039
28343W        W81239  35.049   8.919   2.254
28344W        W81240  34.038  26.033   0.371
28345W        W81241  18.714  29.427   9.088
28346W        W81242   4.991   4.591   9.126
28347W        W81243  30.102  24.133   0.256
28348W        W81244  21.537  21.969   8.439
28349W        W81245   5.148  16.217   3.670
28350W        W81246  34.856  17.706   1.696
28351W        W81247  19.699   7.197   9.960
28352W        W81248   3.113  17.698   0.528
28353W        W81249  28.118  14.408   2.243
28354W        W81250   7.963   1.486   1.968
28355W        W81251   2.224   6.013   2.168
28356W        W81252  31.144  19.274  10.237
28357W        W81253  23.827  28.383   9.041
28358W        W81254  27.299  35.561   8.605
28359W        W81255  19.931   6.331   9.952
28360W        W81256  20.260  28.959   1.936
28361W        W81257  33.337  32.483   2.522
28362W        W81258  20.709  20.562   0.973
28363W        W81259   3.011   1.173   0.689
28364W        W81260  16.821  19.642   2.331
28365W        W81261  18.629  14.934   9.783
28366W        W81262  35.868   2.550   9.481
28367W        W81263  27.641  32.044   0.580
28368W        W81264  35.354  17.628   9.829
28369W        W81265  12.183   2.222   8.174
28370W        W81266   0.148  30.508   4.028
28371W        W81267  13.873   2.237   1.265
28372W        W81268  14.077  32.235   8.397
28373W        W81269  26.353   9.164   8.567
28374W        W81270  13.237  28.005   0.904
28375W        W81271   8.168  33.094   2.833
28376W        W81272  30.015   3.783   2.992
28377W        W81273  33.001  17.985   2.846
28378W        W81274   1.972   8.993   8.641
28379W        W81275  18.862  32.873   9.822
28380W        W81276  31.865  11.595   8.342
28381W        W81277   8.799  22.113   1.885
28382W        W81278  13.889  15.246   2.414
28383W        W81279  12.026  34.712   2.280
28384W        W81280   3.102  29.764   8.603
28385W        W81281  27.028  22.126  10.287
28386W        W81282   7.042  20.534   3.416
28387W        W81283  21.851  31.077  10.028
28388W        W81284  10.750   3.492   3.077
28389W        W81285  27.665   2.725   2.257
28390W        W81286  20.819   2.940   3.728
28391W        W81287   2.177  25.437   1.847
28392W        W81288  20.087  28.072   3.847
28393W        W81289  28.560   7.995   7.466
28394W        W81290  29.588  10.847   0.108
28395W        W81291  30.223  21.971   9.160
28396W        W81292   5.872   9.619   9.738
28397W        W81293   2.585   9.074   0.168
28398W        W81294  13.158   0.900   9.768
28399W        W81295  32.563  26.039   8.778
28400W        W81296  34.883  33.649   7.860
28401W        W81297  12.253   6.231   2.025
28402W        W81298  16.514  21.300   9.223
28403W        W81299  21.164  15.288   9.502
28404W        W81300  30.249   2.880   2.437
28405W        W81301  31.074  32.998   1.118
28406W        W81302  14.747  13.483   3.191
28407W        W81303  32.699  10.915   1.068
28408W        W81304  20.748  13.679   9.129
28409W        W81305  26.028  31.001   2.995
28410W        W81306   1.358  11.682   9.995
28411W        W81307  24.188  23.837   2.089
28412W        W81308  31.739  22.449   1.292
28413W        W81309  19.268  20.486   8.820
28414W        W81310   0.108  35.297   1.018
28415W        W81311  16.945   3.122   8.717
28416W        W81312  22.376   1.365  10.131
28417W        W81313   7.253   8.133   3.019
28418W        W81314  20.924  18.839   1.916
28419W        W81315   7.450  17.927   8.028
28420W        W81316   3.377   2.127   8.200
28421W        W81317  31.089  26.506   1.813
28422W        W81318  11.906   0.075   7.869
28423W        W81319  22.525  30.784   1.305
28424W        W81320  16.820   2.273   8.152
28425W        W81321   4.829  11.450   3.511
28426W        W81322  11.825  21.014   7.867
28427W        W81323  34.755  25.963   1.876
28428W        W81324   5.948  31.390   9.970
28429W        W81325  14.228  17.862   0.122
28430W        W81326  22.633  16.728   8.986
28431W        W81327  16.526   2.564   9.987
28432W        W81328  26.809  26.412   2.335
28433W        W81329  34.399  32.337   2.973
28434W        W81330  32.539  11.850  10.327
28435W        W81331   1.914  21.825   2.645
28436W        W81332  10.511   9.542  10.020
28437W        W81333  21.290   8.190   2.724
28438W        W81334  10.962  20.457   9.308
28439W        W81335   0.725  30.315   2.647
28440W        W81336   6.272  18.339   0.941
28441W        W81337  27.045  32.133   9.422
28442W        W81338  12.548  27.814   1.449
28443W        W81339  12.612  21.777   0.181
28444W        W81340   5.516  30.118   8.935
28445W        W81341  19.824  11.790   2.910
28446W        W81342  32.963  24.088   3.323
28447W        W81343   5.611  27.631   9.050
28448W        W81344  25.481  10.411   2.903
28449W        W81345  25.071  11.534   1.596
28450W        W81346  25.800  28.239   2.704
28451W        W81347  15.214   4.203   8.561
28452W        W81348  12.425  31.416   1.300
28453W        W81349  25.432  13.456  10.135
28454W        W81350  29.725   6.347   1.065
28455W        W81351   2.810  34.502   1.911
28456W        W81352  28.563   3.468   0.977
28457W        W81353  26.446  29.504  10.154
28458W        W81354  14.061  25.505   2.699
28459W        W81355  20.179  13.450   1.134
28460W        W81356   3.636  31.260   2.735
28461W        W81357   3.708  26.721   9.988
28462W        W81358   4.174   5.200   8.343
28463W        W81359  21.376  18.911   2.481
28464W        W81360  28.919  35.942   3.742
28465W        W81361  16.223  31.002   1.765
28466W        W81362  26.911  31.761   0.846
28467W        W81363  34.362   0.454   1.126
28468W        W81364  23.036  34.475   3.141
28469W        W81365   4.113   5.895   8.379
28470W        W81366  35.193  30.683   8.099
28471W        W81367  21.717  18.496   0.145
28472W        W81368  22.996  28.506   1.405
28473W        W81369  27.624   2.236   2.024
28474W        W81370  30.914  18.717   2.982
28475W        W81371   1.831  27.119   9.642
28476W        W81372  20.967   8.854   8.754
28477W        W81373  35.471   1.961   9.853
28478W        W81374  19.123   5.936   0.538
28479W        W81375  27.729   1.921   7.422
28480W        W81376   5.832  10.326   1.353
28481W        W81377  30.933  11.707   2.200
28482W        W81378   2.592  19.399   0.078
28483W        W81379  27.141  33.969   8.784
28484W        W81380   6.053  35.150  10.332
28485W        W81381  29.464  27.691   0.181
28486W        W81382  19.952  19.804   0.721
28487W        W81383  25.496  31.446   8.881
28488W        W81384  13.186  24.504   0.148
28489W        W81385  33.288  23.826   8.377
28490W        W81386   0.120  31.159   3.697
28491W        W81387  19.663   1.217   7.477
28492W        W81388   7.921  35.809   8.839
28493W        W81389  24.672   7.063   0.986
28494W        W81390  23.367   9.535   1.625
28495W        W81391  22.555  11.672   8.267
28496W        W81392  15.207  24.382   1.588
28497W        W81393  32.211  32.658   2.586
28498W        W81394  19.669  26.759   0.295
28499W        W81395  33.018   7.245  10.290
28500W        W81396  30.857  17.815   0.431
28501W        W81397   2.742   6.437   1.704
28502W        W81398  33.661  10.577   2.619
28503W        W81399  11.646  25.550   9.802
28504W        W81400  30.345  27.667   9.063
28505W        W81401   4.999  15.842   2.211
28506W        W81402  22.710  33.439  10.255
28507W        W81403  20.542  23.684   3.344
28508W        W81404  16.051  33.161   1.908
28509W        W81405   7.210   6.874   3.754
28510W        W81406  10.989  34.270   0.018
28511W        W81407   0.941  24.287   3.689
28512W        W81408  12.956  22.944   2.589
28513W        W81409  15.346   2.462   1.816
28514W        W81410  15.807  26.627   9.871
28515W        W81411  12.545  27.344   7.263
28516W        W81412  15.893  22.865   9.917
28517W        W81413  24.300  31.667  10.251
28518W        W81414  26.580  34.685   7.633
28519W        W81415  30.411  13.678   8.864
28520W        W81416  32.172  11.323   9.113
28521W        W81417  32.673  13.789  10.058
28522W        W81418   0.215  17.217   0.089
28523W        W81419  10.775  16.494   1.258
28524W        W81420  11.035  33.652   2.620
28525W        W81421  24.764  31.802  10.138
28526W        W81422  19.420   4.613   2.517
28527W        W81423  28.976   6.649  10.168
28528W        W81424  23.750  21.339   0.347
28529W        W81425  15.612  12.263   3.090
28530W        W81426  23.731   8.106   8.313
28531W        W81427  13.257  29.606   7.676
28532W        W81428  15.516  23.668   1.136
28533W        W81429  34.226   6.300   9.480
28534W        W81430  14.428  27.755   1.764
28535W        W81431  15.840   1.368   2.414
28536W        W81432  13.619  21.846   1.643
28537W        W81433  31.901   7.817   2.597
28538W        W81434  11.457  12.938   0.133
28539W        W81435  13.497  25.173   7.777
28540W        W81436  26.802   9.209   2.772
28541W        W81437  11.189   7.087   1.352
28542W        W81438  22.931   6.550   2.656
28543W        W81439  16.657  31.530   0.935
28544W        W81440  14.106  31.830   1.268
28545W        W81441   8.175   1.300   1.138
28546W        W81442  23.891   6.207   1.576
28547W        W81443  10.039   1.995   8.499
28548W        W81444   2.304   2.018  10.125
28549W        W81445   5.354  32.036   8.316
28550W        W81446   3.504  28.253   8.364
28551W        W81447  17.142  21.151   1.943
28552W        W81448   1.128  32.413  10.005
28553W        W81449  24.603   8.472   2.245
28554W        W81450   2.651  27.951   8.525
28555W        W81451   0.176  29.456   1.315
28556W        W81452  24.301  15.422   9.285
28557W        W81453  25.085   7.939   7.501
28558W        W81454  31.302   8.870   0.984
28559W        W81455   2.637  18.624   1.565
28560W        W81456  11.042  20.931   6.528
28561W        W81457  29.341  12.957   0.042
28562W        W81458  35.893  19.165   1.941
28563W        W81459  23.685  27.469   0.024
28564W        W81460  27.140  20.070   8.589
28565W        W81461  15.495   3.438   1.583
28566W        W81462  22.068   8.770   1.437
28567W        W81463  13.963  14.585   8.351
28568W        W81464   6.678  28.872   9.058
28569W        W81465  30.121  33.211   9.179
28570W        W81466  10.360   4.638   9.268
28571W        W81467  16.311  21.840   9.420
28572W        W81468  21.002  32.469   0.539
28573W        W81469   2.055  15.187   8.389
28574W        W81470  22.641  32.476   2.808
28575W        W81471   5.089  31.612   0.759
28576W        W81472  17.866  34.091   0.097
28577W        W81473  10.056   1.160   9.140
28578W        W81474  16.527  16.364   0.286
28579W        W81475  34.780   1.288   0.078
28580W        W81476  15.091  33.310   7.405
28581W        W81477   2.711   8.118   2.417
28582W        W81478  20.712  34.702   7.891
28583W        W81479  31.691  18.540   9.316
28584W        W81480  31.418  22.653   3.465
28585W        W81481  24.350  26.376   0.793
28586W        W81482  34.072   1.981   9.666
28587W        W81483   5.515  20.304   1.790
28588W        W81484   8.861   9.169   8.620
28589W        W81485  21.730  23.769   8.196
28590W        W81486  21.285   1.126   0.845
28591W        W81487   2.978   0.377   2.830
28592W        W81488   9.288   5.829   1.121
28593W        W81489   9.766  11.470   2.369
28594W        W81490   8.624  16.140   0.526
28595W        W81491  33.610  18.285   9.989
28596W        W81492  19.163  33.403   7.568
28597W        W81493   6.710  23.914   3.105
28598W        W81494  25.269  30.746   0.948
28599W        W81495  30.672  31.467   8.149
28600W        W81496  19.197   9.253   0.356
28601W        W81497   0.792  24.576   0.540
28602W        W81498  27.550  15.652   1.338
28603W        W81499   2.940  28.849   1.886
28604W        W81500   2.288   0.404   7.763
28605W        W81501  21.231  31.875   8.161
28606W        W81502  22.975  21.535   9.387
28607W        W81503   1.223  26.597   0.650
28608W        W81504  28.749  32.102   8.627
28609W        W81505   5.329  32.298   9.216
28610W        W81506  32.494   2.308  10.141
28611W        W81507   2.958  30.945   2.597
28612W        W81508  31.094  25.827   8.886
28613W        W81509  14.856  26.833   9.966
28614W        W81510  11.520  32.281   0.469
28615W        W81511  35.255   4.669   0.214
28616W        W81512  10.454  15.977   2.744
28617W        W81513  18.763   9.780   1.618
28618W        W81514   8.700  24.097   7.995
28619W        W81515   1.158  34.710   9.728
28620W        W81516  18.820  30.257   2.239
28621W        W81517  21.087   1.539   9.403
28622W        W81518  12.719  30.426   1.199
28623W        W81519  19.296   2.386   9.108
28624W        W81520  34.050   3.665   1.137
28625W        W81521  11.839   6.145   1.734
28626W        W81522  16.176  34.354   1.486
28627W        W81523   2.133   5.167   1.385
28628W        W81524   8.412  28.966   7.464
28629W        W81525  25.227  30.472   9.030
28630W        W81526  32.689   9.417   0.906
28631W        W81527  24.897  34.309   2.625
28632W        W81528  27.513  25.406   1.504
28633W        W81529  27.469  14.143   0.290
28634W        W81530  18.441  31.465   2.223
28635W        W81531   4.494  35.619   0.235
28636W        W81532   7.717   1.010   0.150
28637W        W81533  27.815   8.125   8.162
28638W        W81534  22.727  27.654   8.976
28639W        W81535   9.131  17.025  10.091
28640W        W81536  24.232  26.845   9.210
28641W        W81537  32.198  26.433   0.003
28642W        W81538  17.446  12.839   3.040
28643W        W81539  12.105  30.114   0.163
28644W        W81540  13.150  32.865   0.942
28645W        W81541  21.317  17.685   9.429
28646W        W81542   4.731  25.223   8.128
28647W        W81543  17.105  32.590   1.108
28648W        W81544  24.517  23.870   9.216
28649W        W81545   1.016  22.396   2.932
28650W        W81546  16.545  28.372   1.841
28651W        W81547  17.381  29.408   0.990
28652W        W81548  34.658  20.266   9.476
28653W        W81549   8.107  16.968   0.581
28654W        W81550   8.989   5.495   8.314
28655W        W81551  33.891   6.143   8.303
28656W        W81552  29.403  34.615   3.487
28657W        W81553   7.272  31.957   3.620
28658W        W81554  25.306  32.598   2.989
28659W        W81555  35.217  35.373   0.421
28660W        W81556  35.160   9.711   2.118
28661W        W81557  32.397  31.821   8.838
28662W        W81558   2.403  13.551  10.205
28663W        W81559  11.145  25.002   9.932
28664W        W81560  21.508   7.277   9.295
28665W        W81561  23.786  12.173   2.929
28666W        W81562  33.783  16.501   9.184
28667W        W81563  29.632  12.875   3.139
28668W        W81564   9.287  21.916   0.953
28669W        W81565   2.269  19.831   9.598
28670W        W81566  27.917   8.805  10.168
28671W        W81567   6.853   7.242   8.324
28672W        W81568  34.557  23.579   2.521
28673W        W81569  18.665   8.439   3.706
28674W        W81570  18.842  29.407   7.997
28675W        W81571  11.803  24.401   1.799
28676W        W81572  15.620   6.187   1.934
28677W        W81573  25.452   8.603  10.039
28678W        W81574  20.703   8.132   1.197
28679W        W81575   8.543  17.614   0.881
28680W        W81576  22.767  19.465   0.215
28681W        W81577  28.903  31.238   7.524
28682W        W81578  35.362  25.625   2.838
28683W        W81579  27.113  24.164   1.860
28684W        W81580  30.299  22.387   0.509
28685W        W81581   7.541  14.275   0.634
28686W        W81582   4.682  13.048   9.962
28687W        W81583  18.942  27.951   0.331
28688W        W81584   7.678  13.535   9.545
28689W        W81585   1.714  33.779   9.835
28690W        W81586  18.067  33.712   0.936
28691W        W81587  25.962  21.748   2.115
28692W        W81588   3.699  28.792   0.430
28693W        W81589  27.930   5.448   1.375
28694W        W81590  24.199   8.912   2.019
28695W        W81591  17.043  12.054   2.565
28696W        W81592   6.340  18.633   9.701
28697W        W81593  26.885  31.677  10.131
28698W        W81594   1.539  15.330   2.068
28699W        W81595  21.592  18.017   3.051
28700W        W81596  24.632  18.371   9.027
28701W        W81597  34.098  33.509   0.827
28702W        W81598   1.793  26.894   2.356
28703W        W81599  32.548   4.523   8.871
28704W        W81600   6.226  30.473   8.040
28705W        W81601  17.770   9.075   8.372
28706W        W81602  26.575  11.503   8.821
28707W        W81603  16.645  21.549   2.780
28708W        W81604  27.694   4.020   0.794
28709W        W81605  34.185   6.714   7.813
28710W        W81606   9.615  35.315   7.774
28711W        W81607   3.237   6.579   1.712
28712W        W81608   5.350   2.289   1.294
28713W        W81609   9.360   8.245  10.202
28714W        W81610  29.803  28.650   9.662
28715W        W81611   0.571  32.832   9.344
28716W        W81612  30.631  23.694   3.317
28717W        W81613   0.163  13.882   9.861
28718W        W81614  16.357  21.514   2.098
28719W        W81615   6.523  17.561   2.513
28720W        W81616   6.539  31.100   3.403
28721W        W81617  16.469  18.576   3.632
28722W        W81618  32.176  27.745   0.713
28723W        W81619  18.496  26.227   0.805
28724W        W81620  35.802   0.838   0.803
28725W        W81621  21.863  16.529  10.205
28726W        W81622  19.616  26.700   2.735
28727W        W81623  25.906  35.675   2.675
28728W        W81624  21.474   5.160   3.426
28729W        W81625  12.635  10.098   2.953
28730W        W81626  17.026  30.747   8.067
28731W        W81627  35.072   5.823   0.420
28732W        W81628  27.852  20.576   8.183
28733W        W81629  34.415  18.450   2.967
28734W        W81630  31.802  22.709   9.690
28735W        W81631   1.354  32.249   8.756
28736W        W81632  12.957  33.406   3.599
28737W        W81633  33.186   1.179   8.372
28738W        W81634  21.758  20.443   0.969
28739W        W81635  30.419   8.865   2.365
28740W        W81636  35.498   0.122  10.020
28741W        W81637  19.910  29.584   8.606
28742W        W81638  31.625   1.865   9.726
28743W        W81639  29.669  23.313   2.253
28744W        W81640   3.384  22.146   9.170
28745W        W81641  20.067  27.791   9.808
28746W        W81642  17.558  22.752   1.451
28747W        W81643  13.261  20.087   0.856
28748W        W81644  17.854  21.464   1.151
28749W        W81645  35.359   7.740   2.414
28750W        W81646  15.543  29.291   2.801
28751W        W81647  31.896  16.740   8.328
28752W        W81648  10.943  30.993   7.658
28753W        W81649  14.671   2.220   0.700
28754W        W81650  11.892  18.543  10.099
28755W        W81651   5.309   8.510   3.497
28756W        W81652  24.232  11.680   0.140
28757W        W81653  16.755  31.711   1.457
28758W        W81654  26.637  17.342  10.293
28759W        W81655  32.603  21.732   0.981
28760W        W81656  22.331  32.349   3.132
28761W        W81657  25.103   8.528   0.910
28762W        W81658  21.871   5.174   0.791
28763W        W81659  17.050  35.945  10.094
28764W        W81660  16.370  14.803   7.740
28765W        W81661  33.116  18.137   2.388
28766W        W81662   3.946   3.831   9.678
28767W        W81663  17.590  13.712   0.091
28768W        W81664   3.172  25.961   9.112
28769W        W81665   7.718  19.393   2.022
28770W        W81666  26.194  35.165   0.300
28771W        W81667  10.527  25.872   1.055
28772W        W81668  15.455  19.305   0.676
28773W        W81669  11.423  11.676   7.805
28774W        W81670  14.840  25.290   0.400
28775W        W81671  20.550  24.824   2.453
28776W        W81672  23.729  14.438   2.292
28777W        W81673  28.196  30.757   0.005
28778W        W81674  26.970  24.196   7.264
28779W        W81675  23.169  24.557   8.521
28780W        W81676  11.390   1.300   8.821
28781W        W81677   3.115   7.660   1.003
28782W        W81678   5.721  24.549   1.061
28783W        W81679   5.653  12.990   9.318
28784W        W81680   6.965   4.724   0.639
28785W        W81681  31.715  31.750   7.689
28786W        W81682  24.237  32.893   9.748
28787W        W81683  21.532  24.818   8.389
28788W        W81684  18.947  33.203   2.963
28789W        W81685  33.258   4.275   2.178
28790W        W81686   7.684  24.872   1.496
28791W        W81687  11.184   5.551   2.237
28792W        W81688  18.073   0.477   1.187
28793W        W81689   3.236   9.128   9.581
28794W        W81690  10.377  24.775   2.152
28795W        W81691   8.497   5.573   8.595
28796W        W81692  20.151  28.556   0.954
28797W        W81693  29.360  11.245   1.594
28798W        W81694  25.386  30.334   9.731
28799W        W81695  12.834   9.455   0.793
28800W        W81696  12.985   3.464   0.273
28801W        W81697  30.447  23.638   1.162
28802W        W81698   2.485   2.065   9.653
28803W        W81699  35.622  30.899   1.291
28804W        W81700   7.523   8.168   1.901
28805W        W81701   9.296   1.018   9.056
28806W        W81702  24.506  17.583   8.427
28807W        W81703  33.858  19.225   3.596
28808W        W81704  19.138  19.341   3.272
28809W        W81705  35.180  32.037   0.942
28810W        W81706   0.637  29.525   0.869
28811W        W81707  23.865   2.285   2.115
28812W        W81708  23.919  31.730   1.795
28813W        W81709  14.456  23.484   1.081
28814W        W81710   9.919  13.451   3.734
28815W        W81711   6.597  25.690   9.215
28816W        W81712  12.273  25.351   9.231
28817W        W81713  24.157   0.819   9.168
28818W        W81714  13.174  28.519   1.421
28819W        W81715  19.668  21.753   2.041
28820W        W81716   4.315   1.906  10.184
28821W        W81717  20.054  26.895   2.590
28822W        W81718  19.300  24.387   9.285
28823W        W81719  29.667  34.476   2.517
28824W        W81720  27.187  27.742   8.355
28825W        W81721  33.786  21.059   0.685
28826W        W81722  29.511  20.660   0.447
28827W        W81723   2.062  14.427   8.121
28828W        W81724   2.054  24.640   7.778
28829W        W81725  33.982  24.913   1.066
28830W        W81726  10.811  26.495   0.065
28831W        W81727  15.672  32.411   2.358
28832W        W81728  33.602   8.359   0.187
28833W        W81729  16.902   8.469   1.185
28834W        W81730   0.600   5.142  10.124
28835W        W81731  19.315  31.533   2.663
28836W        W81732  24.257  27.624   1.867
28837W        W81733   2.658   9.783   2.639
28838W        W81734  23.279   0.480   0.330
28839W        W81735   3.574  21.870   8.088
28840W        W81736  28.462  23.511   0.462
28841W        W81737  11.615  18.335   0.757
28842W        W81738  16.759  34.341   1.449
28843W        W81739  12.743  24.777  10.261
28844W        W81740  13.701  18.836   9.423
28845W        W81741  24.497  18.534   8.102
28846W        W81742  20.372  29.327   0.608
28847W        W81743   7.541  16.667   1.675
28848W        W81744  20.231  35.231   0.798
28849W        W81745  25.331  35.603  10.098
28850W        W81746  14.534  22.503   3.194
28851W        W81747  19.635   5.488   3.079
28852W        W81748   8.672  18.300   8.876
28853W        W81749   7.110   6.885   8.198
28854W        W81750  21.102  25.600   1.118
28855W        W81751  35.613  33.937   2.048
28856W        W81752  19.995  12.677   9.963
28857W        W81753  29.271  10.383   0.441
28858W        W81754   9.354   8.316   7.876
28859W        W81755   7.480  29.846   0.426
28860W        W81756  12.817  19.531   2.203
28861W        W81757  17.875  25.767   8.659
28862W        W81758  22.072  12.649   2.634
28863W        W81759  19.503  21.345   3.081
28864W        W81760   0.421  14.063   0.563
28865W        W81761  24.557  16.209   7.842
28866W        W81762   9.447  16.270   0.229
28867W        W81763   1.934  34.268   1.424
28868W        W81764  26.013  16.842   0.170
28869W        W81765   3.776   4.947   8.590
28870W        W81766   7.392  32.387  10.185
28871W        W81767  28.571   3.371   2.884
28872W        W81768   0.168  14.583  10.321
28873W        W81769  34.660  28.332   8.123
28874W        W81770  31.745  15.339  10.105
28875W        W81771  17.439  26.709  10.017
28876W        W81772   8.185  30.568  10.336
28877W        W81773  24.500  19.528   4.047
28878W        W81774  27.311   4.467   9.017
28879W        W81775  33.816   5.640   7.781
28880W        W81776  31.131  30.999   8.730
28881W        W81777   5.092   8.197   8.024
28882W        W81778  24.595  22.387   1.361
28883W        W81779   9.802  15.809   1.537
28884W        W81780  24.352  29.065   1.269
28885W        W81781  27.147   1.906   3.243
28886W        W81782  17.411  21.010   8.263
28887W        W81783  29.421  11.728   7.917
28888W        W81784  10.345  22.309   2.162
28889W        W81785  34.863  33.333   7.508
28890W        W81786  27.816   0.727   9.075
28891W        W81787   0.822  12.811   0.547
28892W        W81788   6.249   8.318   9.769
28893W        W81789  14.281   8.700   9.615
28894W        W81790   5.031  12.578   0.056
28895W        W81791  18.652  26.231  10.059
28896W        W81792  12.326  19.280   8.609
28897W        W81793  24.937  10.861   1.419
28898W        W81794  23.932   1.238   9.159
28899W        W81795   6.008   8.519   7.875
28900W        W81796   1.571  20.131   9.598
28901W        W81797  31.722  14.195   1.241
28902W        W81798   2.014  25.869   9.951
28903W        W81799  15.405  13.781   7.966
28904W        W81800   2.752  12.056   3.869
28905W        W81801  13.286  35.584   8.251
28906W        W81802  25.251  25.422   0.176
28907W        W81803   3.652  35.258  10.005
28908W        W81804   7.483   7.528   1.714
28909W        W81805  31.714  33.303   7.225
28910W        W81806  25.741  27.691   0.880
28911W        W81807  11.296  24.546   1.877
28912W        W81808   7.361  11.029   9.791
28913W        W81809  17.301  21.012   3.014
28914W        W81810  29.690  11.879   2.558
28915W        W81811  19.675  18.400   8.357
28916W        W81812  24.811  22.394   8.347
28917W        W81813  15.636  25.197   2.418
28918W        W81814  17.779   1.550   9.988
28919W        W81815  20.097  20.392   0.666
28920W        W81816  20.681  14.483   9.598
28921W        W81817  24.190  32.800   8.849
28922W        W81818  11.836  17.150   8.269
28923W        W81819   3.049   8.964   4.089
28924W        W81820   7.509  30.881   9.592
28925W        W81821  31.702  24.953   2.557
28926W        W81822  21.322  23.416   1.985
28927W        W81823  20.004  26.875   7.831
28928W        W81824  29.480   4.520   0.794
28929W        W81825  32.397   7.017  10.035
28930W        W81826  27.430  10.497   0.257
28931W        W81827  13.833   7.313   1.611
28932W        W81828  21.155  14.649   0.117
28933W        W81829  28.716  16.465   0.559
28934W        W81830  14.164  33.519   8.054
28935W        W81831  26.857  33.158   1.408
28936W        W81832   6.514   8.910   0.334
28937W        W81833  25.580  17.647   9.311
28938W        W81834   3.609  19.367   2.821
28939W        W81835  10.252  18.141   1.963
28940W        W81836   4.043  19.478   1.350
28941W        W81837   0.629   4.078  10.276
28942W        W81838  31.382  21.410   1.094
28943W        W81839  19.177  22.822   1.368
28944W        W81840  35.438  23.433  10.135
28945W        W81841   5.395  30.002   2.611
28946W        W81842   1.210  21.691   9.987
28947W        W81843  35.643  13.889   9.977
28948W        W81844  14.277  26.720   9.938
28949W        W81845  22.916  31.072  10.212
28950W        W81846   6.516  12.871   3.210
28951W        W81847   5.510  32.538   1.721
28952W        W81848  21.904  32.390   8.349
28953W        W81849  25.050  28.344   0.696
28954W        W81850  28.255   9.696   0.997
28955W        W81851   3.518  34.609   8.303
28956W        W81852   2.091  32.597   8.422
28957W        W81853   0.618  17.384   3.424
28958W        W81854  21.031  27.402   9.780
28959W        W81855   7.844  11.821   0.769
28960W        W81856   3.519  16.199   0.794
28961W        W81857  23.480  13.966  10.201
28962W        W81858  28.643   1.913   8.713
28963W        W81859  12.820   1.000   8.749
28964W        W81860   8.986  34.212   0.422
28965W        W81861   5.973  23.118   1.344
28966W        W81862  20.959  21.554   3.335
28967W        W81863   0.608  11.752   8.440
28968W        W81864  19.672  13.456   8.644
28969W        W81865   4.542  18.411   8.699
28970W        W81866  12.086  24.427   2.283
28971W        W81867   6.559  33.260   1.437
28972W        W81868  21.428   4.641   9.268
28973W        W81869  31.599  19.003   8.371
28974W        W81870  22.280   0.695   2.219
28975W        W81871  24.342  27.607   8.220
28976W        W81872  14.124  17.620   9.271
28977W        W81873   1.226  28.557   9.241
28978W        W81874   3.703  31.734   8.516
28979W        W81875  17.021   5.560   0.448
28980W        W81876  33.113  19.383   8.753
28981W        W81877   7.274  13.811   8.245
28982W        W81878  19.436  21.688   9.986
28983W        W81879   0.934  25.754   0.656
28984W        W81880   9.170  15.398   0.618
28985W        W81881   4.023   3.687  10.191
28986W        W81882  16.987  29.298  10.023
28987W        W81883   9.228   3.560   0.189
28988W        W81884  27.491  23.568   2.069
28989W        W81885  21.074  30.519   3.223
28990W        W81886  25.174   8.832   1.987
28991W        W81887  31.601  35.589   1.346
28992W        W81888   4.648   8.326   3.008
28993W        W81889   3.524  25.236   0.322
28994W        W81890  30.437   4.920   9.104
28995W        W81891  24.491  26.482   9.465
28996W        W81892  34.802  34.021   8.633
28997W        W81893  22.545  33.871   8.282
28998W        W81894  25.658   6.771   1.776
28999W        W81895  17.413   6.062   0.753
29000W        W81896   1.142   4.501   1.958
29001W        W81897  13.524  24.819   1.625
29002W        W81898  13.647  31.173   7.524
29003W        W81899  26.075   2.244   8.601
29004W        W81900  20.566   1.501   0.762
29005W        W81901  18.041   6.756   8.765
29006W        W81902   9.820  25.927   9.292
29007W        W81903  17.764   8.759   8.779
29008W        W81904   6.456  10.854  10.124
29009W        W81905  14.081  10.696   8.804
29010W        W81906  11.252   7.671   0.112
29011W        W81907  23.018  26.012   9.690
29012W        W81908   7.914  29.066   8.739
29013W        W81909  28.833   6.796   9.078
29014W        W81910   1.185   0.919   8.509
29015W        W81911  28.498  15.899   8.664
29016W        W81912  29.967   8.390   8.129
29017W        W81913  34.900  13.961   2.560
29018W        W81914   7.551  31.098  10.056
29019W        W81915  35.498   5.100   0.625
29020W        W81916  18.940   8.274   1.764
29021W        W81917   1.653  35.573   8.553
29022W        W81918  24.312  20.104   2.309
29023W        W81919  23.240  13.535   1.259
29024W        W81920  23.494  22.688   0.719
29025W        W81921  19.353  21.311   8.032
29026W        W81922  15.959   5.179   2.869
29027W        W81923  35.516   8.798   0.500
29028W        W81924   2.483  27.884   9.645
29029W        W81925  17.938   5.151   2.929
29030W        W81926  35.022  24.198   7.984
29031W        W81927  19.608   1.913   8.560
29032W        W81928   4.838   5.063   1.542
29033W        W81929  22.959  30.705   1.937
29034W        W81930  19.269  10.783   2.727
29035W        W81931  29.371  20.448   2.682
29036W        W81932  32.960  13.130   9.974
29037W        W81933  35.026  15.475   0.907
29038W        W81934  34.947  24.615   2.516
29039W        W81935   8.259   8.520   0.422
29040W        W81936  23.353  15.680   3.318
29041W        W81937  17.876   1.650   2.948
29042W        W81938  27.876  10.772   8.718
29043W        W81939  18.131  22.923   8.686
29044W        W81940  15.250   5.138   7.521
29045W        W81941  34.528  24.874   2.366
29046W        W81942  24.055  27.740   8.693
29047W        W81943   7.928  26.159   9.346
29048W        W81944   3.375   2.949   8.668
29049W        W81945   3.105   4.259   7.776
29050W        W81946  26.034  17.384   7.507
29051W        W81947  15.739  26.235   0.433
29052W        W81948  34.228  31.992   8.561
29053W        W81949  35.228  23.465   2.685
29054W        W81950   7.299  13.121   3.567
29055W        W81951  17.107  16.214   9.926
29056W        W81952  21.601   6.550   2.949
29057W        W81953  18.847  35.197   0.316
29058W        W81954  20.557  22.169   0.762
29059W        W81955  13.516  24.690   1.104
29060W        W81956   1.370  26.086   0.706
29061W        W81957  32.965  27.826   2.182
29062W        W81958  15.568  12.648   8.263
29063W        W81959  32.220  19.264  10.102
29064W        W81960  26.941  14.252   9.896
29065W        W81961  32.391   8.002   0.132
29066W        W81962  23.372  27.315   1.986
29067W        W81963  16.984   1.420   0.083
29068W        W81964  10.485  30.640   9.396
29069W        W81965   4.520  30.819   2.687
29070W        W81966   6.610  28.517   7.814
29071W        W81967  26.689   8.932   8.939
29072W        W81968   7.198  11.906   9.751
29073W        W81969  30.465   6.395   1.642
29074W        W81970  22.315   8.374   1.189
29075W        W81971  23.776  22.227   2.657
29076W        W81972  18.874   0.059   8.744
29077W        W81973   2.744  21.626   1.579
29078W        W81974   8.603  25.684   6.876
29079W        W81975   2.981  18.024   0.959
29080W        W81976  28.087  23.831   0.928
29081W        W81977  31.216  21.821   8.954
29082W        W81978  19.137  10.137   7.360
29083W        W81979  34.184   2.800   3.098
29084W        W81980   7.290  19.143   8.463
29085W        W81981  34.710  19.469   2.340
29086W        W81982  27.064   3.677   9.750
29087W        W81983  35.678  23.786   2.891
29088W        W81984  14.625  22.859   0.321
29089W        W81985  16.727   4.780   0.454
29090W        W81986  10.919   1.567   9.158
29091W        W81987  10.951  31.619   2.008
29092W        W81988  11.074  11.150   2.067
29093W        W81989  30.532  19.632   1.370
29094W        W81990   7.235   9.471   8.927
29095W        W81991   4.883  26.612   1.479
29096W        W81992   8.814  28.696   3.180
29097W        W81993   2.328  28.060   0.003
29098W        W81994   7.740  17.491   3.104
29099W        W81995  16.770  18.476   0.970
29100W        W81996  21.424  22.537   8.148
29101W        W81997  35.250  25.335   1.199
29102W        W81998   6.685  17.409   8.391
29103W        W81999  18.317  26.851   3.547
29104W        W82000   7.787  10.445   8.384
29105W        W82001  18.127  12.780   8.286
29106W        W82002   9.037  14.932   9.648
29107W        W82003  29.578   1.224   9.236
29108W        W82004   6.313  12.228   2.537
29109W        W82005  26.387  15.916   8.549
29110W        W82006  34.845  16.478   9.406
29111W        W82007   3.955  27.995   8.687
29112W        W82008  30.154  34.728   0.513
29113W        W82009  19.184   4.003   8.242
29114W        W82010  24.546  31.364   9.355
29115W        W82011   3.996  11.443   0.785
29116W        W82012   2.963  31.461   9.313
29117W        W82013  13.725  16.339   0.617
29118W        W82014   5.892  33.488   1.757
29119W        W82015  29.030  32.100   1.431
29120W        W82016  18.883  27.619   9.763
29121W        W82017  23.979  32.693   1.646
29122W        W82018  28.131  11.758   8.915
29123W        W82019  17.583  19.783   0.207
29124W        W82020  32.873   4.065   8.953
29125W        W82021   3.123   1.425   0.298
29126W        W82022  14.183  18.712   3.627
29127W        W82023  28.006   8.570   8.760
29128W        W82024   6.613  14.269   0.046
29129W        W82025   3.689   5.289   2.746
29130W        W82026   7.167  22.395   7.547
29131W        W82027   1.803  34.920   3.148
29132W        W82028  25.229  30.231   0.681
29133W        W82029  32.086  35.667   8.517
29134W        W82030  10.147  18.621   1.705
29135W        W82031  12.069  33.361   2.488
29136W        W82032   2.521   2.680   8.886
29137W        W82033   3.932   2.641   8.770
29138W        W82034  19.578  33.984   0.421
29139W        W82035  25.155  18.648   8.076
29140W        W82036  17.205  31.454   8.966
29141W        W82037  33.808  13.365   8.211
29142W        W82038  25.149  29.264   8.910
29143W        W82039  16.294  26.171   7.636
29144W        W82040  28.939  29.614   2.427
29145W        W82041   6.363  14.484   1.189
29146W        W82042  12.939  15.923   1.980
29147W        W82043  34.782  13.461   1.857
29148W        W82044  21.578   1.807   8.197
29149W        W82045  34.389   4.839   2.130
29150W        W82046  18.129  10.576   2.130
29151W        W82047  20.481  34.144   3.016
29152W        W82048  28.867  13.673   2.473
29153W        W82049  16.473  29.221   1.339
29154W        W82050  29.471  18.895   9.769
29155W        W82051   1.601  30.615   9.564
29156W        W82052  24.385   2.030   9.537
29157W        W82053  17.583  17.047   2.378
29158W        W82054   5.238  14.956  10.050
29159W        W82055   0.050  30.237   8.454
29160W        W82056  12.496   9.519   9.340
29161W        W82057  32.402  24.543   9.542
29162W        W82058  29.839  22.974  10.223
29163W        W82059   1.245   4.287   1.047
29164W        W82060  26.896  18.883   3.128
29165W        W82061   1.133  30.325   1.384
29166W        W82062  26.756  10.826   0.010
29167W        W82063  13.772  32.625   9.054
29168W        W82064  21.824   4.191   9.050
29169W        W82065  26.453   8.586   1.217
29170W        W82066  15.791  23.958   2.579
29171W        W82067  12.752  20.622   1.558
29172W        W82068  20.413  19.064   0.016
29173W        W82069   6.908   5.018   1.157
29174W        W82070  17.687  32.249   3.727
29175W        W82071  13.124   0.354   2.154
29176W        W82072  11.538  20.390   9.377
29177W        W82073  26.281  27.971   1.654
29178W        W82074   2.925   3.230   8.701
29179W        W82075   1.584  18.579   8.470
29180W        W82076  21.370  18.529   3.026
29181W        W82077   0.155   2.925   9.522
29182W        W82078  23.119  33.700   0.266
29183W        W82079   0.658  18.580   9.379
29184W        W82080  16.324  14.319   8.679
29185W        W82081  30.647   1.085   1.833
29186W        W82082   1.779  13.307   3.141
29187W        W82083   1.048  12.734   2.861
29188W        W82084  35.348  31.880   0.502
29189W        W82085  26.570  32.374   9.958
29190W        W82086   5.136  33.443   8.465
29191W        W82087  22.991   3.657   1.944
29192W        W82088   2.405  27.032   0.449
29193W        W82089   7.224   0.607   2.877
29194W        W82090   2.516  23.318   1.656
29195W        W82091  22.761  31.219   9.703
29196W        W82092   7.071  23.166   3.006
29197W        W82093  22.848  31.556   2.447
29198W        W82094  19.834  24.680   3.370
29199W        W82095  24.279  14.349   1.923
29200W        W82096   3.562   8.728   2.208
29201W        W82097  14.020  24.362   0.349
29202W        W82098   7.669  28.134   2.080
29203W        W82099   9.643   1.870   8.896
29204W        W82100  14.830  10.384   1.142
29205W        W82101  17.022   7.555   7.905
29206W        W82102  15.861  33.748   8.466
29207W        W82103  16.109  20.478   8.380
29208W        W82104  29.247  33.851   1.238
29209W        W82105  21.780  25.753   8.546
29210W        W82106  16.795   4.164  10.142
29211W        W82107   7.285   9.957   8.878
29212W        W82108  11.419  26.261   8.659
29213W        W82109  13.817  27.510   0.145
29214W        W82110  34.859  12.149   0.365
29215W        W82111  15.103  23.775   9.341
29216W        W82112  15.422  27.142   1.175
29217W        W82113  15.830  20.864   7.984
29218W        W82114  21.135  28.008   8.426
29219W        W82115  31.325  13.427   0.863
29220W        W82116  16.970  13.335   1.858
29221W        W82117  28.095  31.296   2.032
29222W        W82118   9.396  13.189   9.434
29223W        W82119  12.288  20.291   1.743
29224W        W82120  35.921  30.011   9.679
29225W        W82121  15.230  28.795   0.495
29226W        W82122  29.338  16.035   2.316
29227W        W82123   8.384  11.701   8.839
29228W        W82124   3.238  13.036   0.897
29229W        W82125   5.968  24.372   1.817
29230W        W82126   4.764  20.964   1.874
29231W        W82127  32.351  22.146   1.790
29232W        W82128  26.623  35.292   3.376
29233W        W82129  15.378   7.049   8.522
29234W        W82130  22.207  25.101   0.064
29235W        W82131   8.780  14.496   1.018
29236W        W82132   8.142  23.305   9.107
29237W        W82133  23.585  13.120   8.089
29238W        W82134  27.044  32.568  10.204
29239W        W82135  12.772  34.896   8.891
29240W        W82136  19.284   5.111   3.290
29241W        W82137  11.094  27.102   7.966
29242W        W82138   0.068   4.029   7.998
29243W        W82139   4.628  20.654   0.278
29244W        W82140  28.562   4.710   8.208
29245W        W82141  11.563  32.575   8.719
29246W        W82142  22.253  26.652   1.017
29247W        W82143  34.807  31.331   2.248
29248W        W82144  34.677  23.878  10.109
29249W        W82145  27.835  28.357   0.168
29250W        W82146  23.096  33.968   0.719
29251W        W82147  27.789  35.726   8.389
29252W        W82148  31.158   9.082   7.451
29253W        W82149  11.809  17.778   9.804
29254W        W82150   2.196  16.794   9.391
29255W        W82151  10.405  33.619   0.464
29256W        W82152  22.291  23.360   1.533
29257W        W82153  34.946  26.875  10.242
29258W        W82154  10.665  17.355   1.171
29259W        W82155  27.797  20.111   7.846
29260W        W82156   9.182   1.738   2.160
29261W        W82157  15.548  30.715   8.151
29262W        W82158  26.732  31.569   0.433
29263W        W82159  18.174   1.308  10.301
29264W        W82160  18.940  21.244   2.537
29265W        W82161   3.862   7.959   0.550
29266W        W82162  12.190  31.364   1.917
29267W        W82163  22.230   9.749   1.842
29268W        W82164  20.035  23.658   1.978
29269W        W82165  13.275  34.895   0.328
29270W        W82166   3.040  28.678   1.322
29271W        W82167  28.290  11.959   1.208
29272W        W82168  25.879  25.764   9.797
29273W        W82169   4.583   0.146   2.215
29274W        W82170  29.674   6.803   9.438
29275W        W82171   9.240  29.069   9.203
29276W        W82172  34.295  29.164   2.089
29277W        W82173  30.384  23.464   6.883
29278W        W82174  27.533  12.960   9.355
29279W        W82175  29.376  32.348   0.778
29280W        W82176  26.725  32.518   1.987
29281W        W82177   0.955  14.061   2.147
29282W        W82178  22.176   2.255   9.198
29283W        W82179  28.034  23.231   3.181
29284W        W82180  20.098  16.809   7.790
29285W        W82181  28.075  34.978   7.227
29286W        W82182  35.983  19.883  10.062
29287W        W82183  18.571  22.984   3.016
29288W        W82184  10.753  33.831   8.059
29289W        W82185  15.307  11.131  10.217
29290W        W82186  25.524  33.670   8.093
29291W        W82187  29.846  14.920   9.140
29292W        W82188  26.544   7.623   2.227
29293W        W82189   9.423  19.370   2.964
29294W        W82190  14.257  17.023   3.287
29295W        W82191  30.018  34.432   9.335
29296W        W82192  23.892  29.247   8.496
29297W        W82193   0.803  15.255   9.269
29298W        W82194  35.924  13.996   0.763
29299W        W82195  13.635   1.542   9.375
29300W        W82196  32.581   4.266   1.375
29301W        W82197  23.936   5.009   9.157
29302W        W82198  16.200  32.398  10.075
29303W        W82199  34.004   1.052   2.669
29304W        W82200  25.758  28.669   3.017
29305W        W82201  24.310   8.533   3.194
29306W        W82202   9.061  16.211   2.858
29307W        W82203  15.183   0.597   7.511
29308W        W82204  23.142  18.170   2.893
29309W        W82205  29.865  28.091   9.262
29310W        W82206   2.675   2.704   0.475
29311W        W82207  24.499   3.428   5.363
29312W        W82208  24.272  25.744   2.532
29313W        W82209  29.074  31.457   1.717
29314W        W82210  35.710  13.030   2.018
29315W        W82211  17.584  10.006   8.616
29316W        W82212   0.587  27.678   1.631
29317W        W82213  15.061   5.835   2.914
29318W        W82214  25.867  22.184   1.934
29319W        W82215  31.900  21.180   9.819
29320W        W82216  24.857  20.927   0.964
29321W        W82217  23.330  29.032   2.628
29322W        W82218   5.346  19.662   8.040
29323W        W82219  18.794  15.434   8.070
29324W        W82220  19.779  33.590   9.534
29325W        W82221  14.807  19.878   0.042
29326W        W82222  33.692   8.762   7.217
29327W        W82223  12.546  13.586   9.079
29328W        W82224   3.036  27.071   3.724
29329W        W82225  31.982   2.461   8.895
29330W        W82226  28.025   6.215   9.053
29331W        W82227   9.091  35.030   1.837
29332W        W82228   5.002  29.038   9.447
29333W        W82229  30.950   6.907   8.543
29334W        W82230  15.058  10.689   0.291
29335W        W82231  12.810   2.356   8.192
29336W        W82232   2.176  35.828   8.502
29337W        W82233  23.518  17.486  10.058
29338W        W82234  30.128  29.628   1.175
29339W        W82235  28.932  31.734   8.997
29340W        W82236  29.203  25.076   9.224
29341W        W82237  18.887   5.589   0.201
29342W        W82238  26.261  29.413   8.549
29343W        W82239   4.296  34.690   3.049
29344W        W82240  15.621  26.696   1.879
29345W        W82241  16.745  33.503   8.067
29346W        W82242   2.576  24.738   1.711
29347W        W82243  23.107  29.279   0.921
29348W        W82244  16.507  34.211   7.788
29349W        W82245  35.417  29.232   2.298
29350W        W82246  11.157  21.838   0.765
29351W        W82247  26.962   2.621   8.850
29352W        W82248  15.132  12.210   2.474
29353W        W82249  29.107  35.271   0.995
29354W        W82250  30.907   7.744   8.723
29355W        W82251  11.322  24.146   1.581
29356W        W82252   1.704   3.914   1.111
29357W        W82253  31.446  15.405   0.442
29358W        W82254  34.205  18.451   3.450
29359W        W82255  22.260  34.303   9.427
29360W        W82256  25.221  26.231  10.152
29361W        W82257  25.212  27.861   0.956
29362W        W82258  25.165   0.454   9.370
29363W        W82259   5.776  27.079   2.844
29364W        W82260  33.269   7.364   8.265
29365W        W82261  23.501  17.968   9.778
29366W        W82262  10.071   2.844   8.091
29367W        W82263   2.635  18.461   9.722
29368W        W82264  23.190   9.696   0.765
29369W        W82265  34.323  27.130   1.531
29370W        W82266  34.015  22.678   3.027
29371W        W82267  26.828  20.517   3.302
29372W        W82268  30.267   1.066  10.159
29373W        W82269   5.513  17.260   9.913
29374W        W82270   9.931  28.037   0.735
29375W        W82271   3.595   9.525   1.577
29376W        W82272  16.106  26.165   9.936
29377W        W82273  11.475  22.548   9.954
29378W        W82274  33.177  31.078   2.989
29379W        W82275  19.971  14.997   7.081
29380W        W82276  13.461   3.045   9.175
29381W        W82277   7.887  18.971   8.730
29382W        W82278  22.021   4.269   9.932
29383W        W82279   3.860   0.651  10.129
29384W        W82280  29.298   2.217   1.293
29385W        W82281   9.705   4.856   2.254
29386W        W82282  29.451  24.595   2.683
29387W        W82283  13.377  29.634   9.270
29388W        W82284   0.071   8.645   0.450
29389W        W82285  34.095  15.274   2.859
29390W        W82286   0.595   4.626  10.202
29391W        W82287  27.226   4.053   1.756
29392W        W82288  31.255  10.084   8.597
29393W        W82289  10.619   1.843   7.691
29394W        W82290   4.418  33.200   3.002
29395W        W82291   8.104   4.334   1.356
29396W        W82292  34.590  26.962   3.382
29397W        W82293  15.198  35.921   3.437
29398W        W82294   7.280  22.283   9.785
29399W        W82295   0.819   6.607   2.686
29400W        W82296  34.211  34.715   7.694
29401W        W82297   9.074   3.720   9.180
29402W        W82298  29.752  18.743   2.136
29403W        W82299  13.440  25.913   0.068
29404W        W82300  26.758  15.419   9.714
29405W        W82301   2.602   8.569   3.608
29406W        W82302  17.771  25.716   2.026
29407W        W82303   7.311   4.601   0.209
29408W        W82304  12.874  19.405   9.657
29409W        W82305  21.979  12.200   9.794
29410W        W82306   9.098  21.896   8.799
29411W        W82307   4.310  29.652   7.252
29412W        W82308   6.291   5.676   9.631
29413W        W82309   8.082  12.141   9.983
29414W        W82310  35.361  27.058   8.768
29415W        W82311   6.360  11.947   8.196
29416W        W82312   7.075  29.312   9.643
29417W        W82313   6.033  31.766   9.451
29418W        W82314  32.443   4.786   3.335
29419W        W82315  15.770  28.075   9.057
29420W        W82316   9.065  17.483   0.599
29421W        W82317  16.529   4.637   2.659
29422W        W82318   2.034  14.221   8.645
29423W        W82319  29.746  32.366   1.973
29424W        W82320   4.985   6.489   2.319
29425W        W82321  14.495  17.652   2.429
29426W        W82322  26.297   3.474   2.675
29427W        W82323   9.509  34.966   1.501
29428W        W82324  13.807  22.273   1.944
29429W        W82325   2.581  17.150   3.692
29430W        W82326   1.479  22.575   1.895
29431W        W82327  25.703  17.249   8.939
29432W        W82328  27.068  11.192   3.723
29433W        W82329  29.672  11.125   0.581
29434W        W82330  35.565  10.626   7.429
29435W        W82331  27.749   7.626   8.921
29436W        W82332   3.143   3.125   8.214
29437W        W82333  20.557  30.556   1.898
29438W        W82334   7.834  30.430   1.228
29439W        W82335  34.317  16.559   1.831
29440W        W82336  35.576  15.925   1.205
29441W        W82337  35.094  34.311   0.592
29442W        W82338  33.305  26.405   0.996
29443W        W82339   0.367   5.518   2.013
29444W        W82340  25.676  30.001   6.679
29445W        W82341   4.263  19.085   3.069
29446W        W82342  35.567   0.257   7.358
29447W        W82343  22.934  27.474   9.832
29448W        W82344  35.115  21.469   3.443
29449W        W82345  17.560   3.229   1.101
29450W        W82346   5.293  15.428   3.793
29451W        W82347  11.474  28.372   0.028
29452W        W82348  26.660  15.837   1.212
29453W        W82349  35.795  10.060   8.565
29454W        W82350  24.998  21.893   1.056
29455W        W82351  25.033  24.642   9.809
29456W        W82352  34.091   8.978   8.175
29457W        W82353  20.567  20.578   9.256
29458W        W82354  31.106  19.688   0.154
29459W        W82355  11.174  15.737   1.995
29460W        W82356  22.960   5.532   0.349
29461W        W82357  21.888   4.485   9.455
29462W        W82358   1.343  21.262   2.307
29463W        W82359  32.531   8.070   8.466
29464W        W82360  30.681  13.785   3.096
29465W        W82361  11.948   7.749   1.261
29466W        W82362  11.118  10.988   1.193
29467W        W82363   8.470  23.466   8.264
29468W        W82364  33.543   3.098   8.205
29469W        W82365  15.676   0.400   2.647
29470W        W82366   7.607  16.037   3.324
29471W        W82367   0.206  28.514   8.609
29472W        W82368  29.945  17.536   7.188
29473W        W82369  21.254   7.523   9.889
29474W        W82370  20.094  17.454   8.585
29475W        W82371  16.522  16.049   9.730
29476W        W82372  31.761  14.786   1.934
29477W        W82373  30.696  14.246   2.040
29478W        W82374  31.461  32.040   0.839
29479W        W82375  27.607   5.093   8.943
29480W        W82376  22.687  24.817   0.544
29481W        W82377  25.694  16.284   1.370
29482W        W82378  23.964  34.814   8.882
29483W        W82379   6.276  35.886   0.014
29484W        W82380  17.487  10.636   3.193
29485W        W82381   3.324  31.398   2.298
29486W        W82382   9.270  32.010   8.636
29487W        W82383  18.408   5.481   0.390
29488W        W82384   1.654  32.462   9.190
29489W        W82385   0.270  11.727   9.098
29490W        W82386   0.607   3.070   0.867
29491W        W82387  34.531  11.207   0.258
29492W        W82388   4.483  11.734   3.118
29493W        W82389  28.677  18.052   7.253
29494W        W82390   7.626  23.291   8.449
29495W        W82391  35.357   5.164   2.924
29496W        W82392  30.489  28.234   2.140
29497W        W82393   8.928  17.969   0.859
29498W        W82394   3.358  32.704   1.118
29499W        W82395   0.697  24.608   7.765
29500W        W82396  10.162  34.074   8.733
29501W        W82397  35.199  31.579   1.992
29502W        W82398  30.782  31.121   9.126
29503W        W82399  19.458  12.611   1.144
29504W        W82400  17.816  23.607   0.386
29505W        W82401  19.296  35.147   2.680
29506W        W82402  17.297  16.498   1.099
29507W        W82403  14.616  15.191   7.603
29508W        W82404   7.400  21.554   6.913
29509W        W82405  16.527  19.171   3.041
29510W        W82406  22.080  32.735   7.394
29511W        W82407  34.101  15.867   0.498
29512W        W82408  10.254  18.593  10.024
29513W        W82409  18.337  15.547   2.577
29514W        W82410  34.179   7.342   8.635
29515W        W82411   5.821  24.354   3.545
29516W        W82412   4.249  26.549   3.253
29517W        W82413  25.591  15.541   0.348
29518W        W82414   2.328  18.740   7.992
29519W        W82415  10.217   5.359   2.410
29520W        W82416  15.819  23.256   9.638
29521W        W82417  34.455  21.051   2.813
29522W        W82418  34.327  13.936   1.556
29523W        W82419  22.281  17.048   2.139
29524W        W82420  28.537  17.986   9.345
29525W        W82421  26.500   3.342   8.490
29526W        W82422   2.985   6.295   2.620
29527W        W82423   5.561  22.885   8.050
29528W        W82424  22.220   8.765   0.335
29529W        W82425  24.816   5.098   9.813
29530W        W82426  26.767  28.250   9.360
29531W        W82427  28.820   2.477   3.210
29532W        W82428  11.560  31.188   3.075
29533W        W82429  27.907   6.276   0.059
29534W        W82430  32.493   7.260   9.229
29535W        W82431  22.615  30.246   7.701
29536W        W82432   3.296  31.749   3.246
29537W        W82433  30.409  23.013   0.443
29538W        W82434   5.305   9.818   2.672
29539W        W82435   7.385   2.352   8.789
29540W        W82436  22.698   0.975   1.390
29541W        W82437  20.021  29.077   8.334
29542W        W82438  20.694  24.003   0.453
29543W        W82439   8.530  28.822   0.643
29544W        W82440  25.553   4.434   0.046
29545W        W82441  11.686  24.625   0.902
29546W        W82442  20.788  27.255   1.419
29547W        W82443   8.957  20.730   0.737
29548W        W82444  25.931  26.665   9.691
29549W        W82445   0.781  23.342  10.101
29550W        W82446   7.418  17.834   0.133
29551W        W82447  31.485  32.662   1.219
29552W        W82448  21.402   3.217   0.219
29553W        W82449  26.407  30.324   2.197
29554W        W82450  14.523  27.191  10.046
29555W        W82451  34.208  28.885   7.799
29556W        W82452  35.939   3.696   3.342
29557W        W82453  21.657  26.641   2.333
29558W        W82454  31.585  14.447   8.513
29559W        W82455   5.959  13.218   8.917
29560W        W82456  28.179  31.777   9.022
29561W        W82457  15.037  10.964   9.728
29562W        W82458  29.425  32.421   9.288
29563W        W82459  11.065  26.825   9.335
29564W        W82460  32.441  23.481   7.972
29565W        W82461  14.094   8.805   2.751
29566W        W82462  24.120  33.258   8.390
29567W        W82463  21.590  34.610   3.392
29568W        W82464  16.334   2.489   0.427
29569W        W82465  15.235   2.692  10.333
29570W        W82466   2.154  17.994   2.991
29571W        W82467  34.301  14.011   8.198
29572W        W82468   9.053  14.211   0.636
29573W        W82469  12.443   7.875   7.491
29574W        W82470   7.325   5.474   8.506
29575W        W82471  33.062   9.203   2.899
29576W        W82472   8.127  29.037   7.051
29577W        W82473   0.363  29.340   8.623
29578W        W82474  17.002  14.826   1.073
29579W        W82475  22.312   3.586   8.627
29580W        W82476  22.230  33.540   8.473
29581W        W82477  11.376  29.648   9.576
29582W        W82478   2.549  24.085   3.021
29583W        W82479  25.586  28.414   9.762
29584W        W82480   0.356  26.562   0.711
29585W        W82481  32.019  29.180   8.256
29586W        W82482  12.823  31.250   0.465
29587W        W82483  33.358  16.279   1.457
29588W        W82484   8.996   9.012   2.078
29589W        W82485  15.488  21.408   1.012
29590W        W82486   0.766  17.286  10.282
29591W        W82487   2.576   1.764   1.132
29592W        W82488  25.217  10.248   0.337
29593W        W82489  12.918   4.335   2.915
29594W        W82490  23.506  16.075   0.008
29595W        W82491   5.507  19.734   0.809
29596W        W82492  27.502  29.215   0.696
29597W        W82493   1.747  18.033   2.696
29598W        W82494  25.475   6.366   9.378
29599W        W82495  23.939  35.320   2.819
29600W        W82496  18.462   5.569   9.053
29601W        W82497  17.241   2.497   3.081
29602W        W82498  23.088  18.512   9.092
29603W        W82499   2.550  17.505   1.689
29604W        W82500  22.773  31.858   8.040
29605W        W82501  25.498  27.041   2.218
29606W        W82502   4.864  18.008   8.594
29607W        W82503   1.034  29.270   8.407
29608W        W82504  14.850  11.913   9.174
29609W        W82505  31.850  10.863   2.612
29610W        W82506   4.365   2.454   9.219
29611W        W82507  31.012  16.844   9.296
29612W        W82508  18.654  29.172   0.339
29613W        W82509  26.780  11.710   1.966
29614W        W82510  16.263  26.509   9.578
29615W        W82511   6.512   0.248   1.798
29616W        W82512  17.978  32.077   2.016
29617W        W82513  13.705  10.284   7.852
29618W        W82514  21.605   9.204   2.966
29619W        W82515  24.135  24.050   0.626
29620W        W82516  31.921   0.077   8.721
29621W        W82517  12.238  10.981   8.179
29622W        W82518  31.466   0.077   8.216
29623W        W82519  34.918  29.466   2.834
29624W        W82520  10.141  35.679   8.218
29625W        W82521  12.058  19.295   2.741
29626W        W82522   8.773  18.782   0.852
29627W        W82523  29.462  20.421   2.086
29628W        W82524  29.616   2.373   0.464
29629W        W82525  30.135   1.568   1.518
29630W        W82526  32.080  14.418   9.978
29631W        W82527  27.175  24.125   0.603
29632W        W82528  18.953  25.984   7.678
29633W        W82529  25.244   9.356   0.597
29634W        W82530   4.941  11.840   2.604
29635W        W82531  21.942  27.513   8.817
29636W        W82532  33.497   5.836   0.718
29637W        W82533  14.417   8.958   9.087
29638W        W82534  10.653   3.923   0.087
29639W        W82535   8.439  15.016   7.711
29640W        W82536  10.678   2.719   1.497
29641W        W82537  19.433  35.671   2.633
29642W        W82538  12.997  13.158   9.940
29643W        W82539  31.463  29.691   0.810
29644W        W82540   6.759  13.674   3.077
29645W        W82541  32.767   0.765   0.976
29646W        W82542  22.547  21.987   3.086
29647W        W82543  29.088  20.571   0.720
29648W        W82544   9.352   1.648   1.536
29649W        W82545  35.237   9.227   8.873
29650W        W82546  31.062   9.903   2.266
29651W        W82547  24.056  10.166   3.774
29652W        W82548  29.677   3.742   9.708
29653W        W82549  18.225   5.103   9.180
29654W        W82550  33.575  15.167   0.808
29655W        W82551  11.530  27.060   9.392
29656W        W82552   2.546  32.184   7.804
29657W        W82553  16.775  31.918   7.964
29658W        W82554  33.821  26.488   9.444
29659W        W82555   5.920  21.693   1.263
29660W        W82556  16.389  17.342  10.273
29661W        W82557  24.009  35.696   2.496
29662W        W82558  23.725  20.372   3.599
29663W        W82559  14.761  12.162   8.140
29664W        W82560   1.738  17.529   1.092
29665W        W82561  15.164  14.373   0.720
29666W        W82562   8.113  23.260   0.505
29667W        W82563   6.357   2.984   0.525
29668W        W82564  30.534   9.475   9.142
29669W        W82565  15.280  19.848   2.251
29670W        W82566  29.360  14.340   9.691
29671W        W82567  32.862   9.964   8.634
29672W        W82568  23.210   5.911   1.538
29673W        W82569  18.494  27.025   3.947
29674W        W82570  12.313   5.062   0.264
29675W        W82571   9.011   8.534   1.123
29676W        W82572   6.531   5.588   3.145
29677W        W82573  15.170   3.168   8.240
29678W        W82574  18.770   6.187   3.617
29679W        W82575  19.087  29.178   8.407
29680W        W82576  11.177  31.150   8.566
29681W        W82577  13.285  14.879   1.885
29682W        W82578  12.807  33.810   1.503
29683W        W82579  19.234  34.288   0.611
29684W        W82580  19.358  27.765   8.140
29685W        W82581  28.077  26.096   7.747
29686W        W82582  19.695  28.143   7.861
29687W        W82583   2.672  28.819   9.792
29688W        W82584   9.013  22.697   9.217
29689W        W82585  18.930  16.933   0.520
29690W        W82586  18.608   2.526   8.068
29691W        W82587  17.862  25.876   1.519
29692W        W82588  29.760  27.373   1.390
29693W        W82589   0.035   1.972   9.185
29694W        W82590  25.432  30.363   8.144
29695W        W82591  25.573   3.473   3.701
29696W        W82592  30.397   9.019   9.495
29697W        W82593  16.591  17.715   8.520
29698W        W82594   4.677  16.911   0.186
29699W        W82595  28.491  18.693   1.267
29700W        W82596  33.910  16.233   0.174
29701W        W82597  20.858  31.007   3.094
29702W        W82598  16.020  29.064   9.441
29703W        W82599  25.993  23.854  10.099
29704W        W82600  16.274   0.678   8.659
29705W        W82601  16.178  15.087   1.433
29706W        W82602  13.162  28.019   2.326
29707W        W82603  25.996  30.788   7.267
29708W        W82604   6.916  23.464   8.428
29709W        W82605   9.992   7.585   3.040
29710W        W82606   2.471  21.013   9.049
29711W        W82607  15.852   3.817   8.495
29712W        W82608   0.734   1.403   9.352
29713W        W82609  27.219   6.729   8.345
29714W        W82610   4.107  12.825   1.524
29715W        W82611  10.689  35.724   8.876
29716W        W82612  35.123  21.755  10.134
29717W        W82613   7.348  21.014   1.986
29718W        W82614  18.551  28.879   3.139
29719W        W82615   1.622  10.318   1.553
29720W        W82616   3.947  25.598   3.827
29721W        W82617  31.879  22.883   0.805
29722W        W82618  29.409  21.965   0.991
29723W        W82619  23.490  12.878   0.352
29724W        W82620  24.200  28.798   0.131
29725W        W82621  29.632  34.580   7.963
29726W        W82622  29.308  15.199   9.831
29727W        W82623  17.581  12.279   3.041
29728W        W82624  20.506   4.350   9.214
29729W        W82625  35.787   1.074   8.049
29730W        W82626  28.122  21.034   8.185
29731W        W82627   4.177  13.994   0.596
29732W        W82628  23.602  16.742   1.613
29733W        W82629  30.738  13.646   9.956
29734W        W82630   1.448   1.170   3.000
29735W        W82631  30.773  16.505   7.401
29736W        W82632  34.132  30.492   2.910
29737W        W82633   9.534   6.736   0.060
29738W        W82634  13.206  31.644   3.142
29739W        W82635   3.806  21.233   0.703
29740W        W82636  21.208  22.340   4.216
29741W        W82637  21.419  33.100   2.236
29742W        W82638  18.252  23.324   2.640
29743W        W82639   9.111  25.320   0.162
29744W        W82640   1.981   9.725   0.901
29745W        W82641   2.304  12.499   9.703
29746W        W82642  35.668   9.273   7.381
29747W        W82643   1.760  26.403   0.807
29748W        W82644  33.991  32.672   9.190
29749W        W82645  17.229   8.028   0.225
29750W        W82646   4.593   3.350   7.211
29751W        W82647  20.126   9.804   0.251
29752W        W82648  18.380   8.575   1.933
29753W        W82649  21.415  16.437   9.113
29754W        W82650   3.251  34.962   2.493
29755W        W82651  35.309  26.610   1.317
29756W        W82652  23.263  13.758   2.555
29757W        W82653   9.235  26.590   9.713
29758W        W82654  17.161  30.924   1.835
29759W        W82655   4.504  35.077   0.014
29760W        W82656  10.579   0.531  10.182
29761W        W82657   5.848  32.229   0.675
29762W        W82658  32.866  32.525   0.400
29763W        W82659  32.491  26.432   0.431
29764W        W82660  22.014  28.033   0.667
29765W        W82661  10.956   2.241   0.632
29766W        W82662  29.411   3.519   8.829
29767W        W82663  24.899  16.371   2.052
29768W        W82664  17.103  20.418   8.589
29769W        W82665   4.125  28.198   1.661
29770W        W82666   7.306   0.798   0.476
29771W        W82667  30.843  15.699   9.515
29772W        W82668  18.121   6.164   2.502
29773W        W82669  16.655  13.761   2.844
29774W        W82670  18.612  27.578   0.453
29775W        W82671  18.896  13.749   8.550
29776W        W82672  15.645  25.259   1.964
29777W        W82673   5.753  17.611   1.702
29778W        W82674  22.283  16.945   1.351
29779W        W82675   8.114   0.721   1.923
29780W        W82676  17.916   8.374   0.144
29781W        W82677  34.242  10.697   8.907
29782W        W82678   0.167  30.182   2.603
29783W        W82679   8.531  32.340   2.489
29784W        W82680   6.364   5.854   1.739
29785W        W82681  14.262   3.558   3.506
29786W        W82682   7.059   0.375   2.085
29787W        W82683  27.241  29.771   7.320
29788W        W82684  27.658  32.633   9.147
29789W        W82685  19.668   3.127   3.222
29790W        W82686  35.237   1.238   0.446
29791W        W82687  25.888  25.978   9.099
29792W        W82688  22.228  35.518   2.219
29793W        W82689  31.678   9.217   0.937
29794W        W82690  14.646  28.327   6.998
29795W        W82691  29.889  32.842   8.487
29796W        W82692   3.063  25.202   0.898
29797W        W82693  22.308  14.546   8.621
29798W        W82694  18.109  33.804   0.455
29799W        W82695  32.233   6.824   7.544
29800W        W82696  25.132   5.037   2.347
29801W        W82697  30.499   0.824   9.611
29802W        W82698  22.005   7.151  10.084
29803W        W82699  22.823  10.177   2.648
29804W        W82700  11.568  13.724   9.557
29805W        W82701  18.363  19.367   8.599
29806W        W82702  11.010   3.253   9.863
29807W        W82703  24.082  20.985   0.065
29808W        W82704  32.960  35.693   1.192
29809W        W82705  29.190  35.548   9.618
29810W        W82706  29.427   4.600   3.009
29811W        W82707  17.584  11.447   4.095
29812W        W82708  28.889  34.956   2.576
29813W        W82709  14.993  32.424   2.696
29814W        W82710  32.989   4.184   0.481
29815W        W82711  18.928  33.246   0.299
29816W        W82712   2.767  15.961   9.431
29817W        W82713   3.106  15.079  10.248
29818W        W82714   7.762   7.443   6.961
29819W        W82715   6.174   6.068   0.863
29820W        W82716  33.870   9.696   2.548
29821W        W82717  25.138  15.778   0.310
29822W        W82718  33.826  10.976   2.976
29823W        W82719  30.258  18.024   9.261
29824W        W82720  11.639  23.637   7.398
29825W        W82721   9.188  25.806  10.196
29826W        W82722   4.642  31.466   0.560
29827W        W82723  35.238  28.455   0.065
29828W        W82724  23.620   7.383   0.798
29829W        W82725  31.698   0.774   7.274
29830W        W82726  20.299  21.692   9.442
29831W        W82727  32.824   6.072   9.156
29832W        W82728  12.417  34.408   2.201
29833W        W82729  14.041  34.086   7.937
29834W        W82730  12.681  35.086   3.008
29835W        W82731  27.704  13.642   2.466
29836W        W82732  32.483  28.248   3.144
29837W        W82733  13.021  28.076   8.747
29838W        W82734   2.035  22.466   0.745
29839W        W82735  14.171   5.276   1.430
29840W        W82736  35.317  12.812   9.878
29841W        W82737   3.764   2.481  10.140
29842W        W82738   0.298   3.015   1.350
29843W        W82739   8.042   3.493   9.716
29844W        W82740  16.268   3.420   2.735
29845W        W82741  13.182   3.839   0.549
29846W        W82742  22.353   9.777   1.274
29847W        W82743  35.498   7.672   3.831
29848W        W82744   5.829  20.071   0.859
29849W        W82745  30.144   6.141   9.009
29850W        W82746  35.998  15.509   2.719
29851W        W82747  25.785  29.373   8.337
29852W        W82748  31.723  13.054   8.880
29853W        W82749  27.641  18.160   1.650
29854W        W82750   1.771  23.930   3.302
29855W        W82751   4.438  14.396   1.914
29856W        W82752  20.339  22.614   9.159
29857W        W82753  20.163  13.143   8.760
29858W        W82754   2.466  26.792   3.097
29859W        W82755  12.324  22.152   1.560
29860W        W82756  10.427   3.244   9.900
29861W        W82757  13.036  26.550  10.261
29862W        W82758  19.673  13.490   9.505
29863W        W82759  32.905  22.203   8.485
29864W        W82760  35.110   2.750   0.967
29865W        W82761   2.459  22.294   9.389
29866W        W82762  32.695   7.731   7.151
29867W        W82763  16.126  31.727   9.980
29868W        W82764  32.823   2.569   0.237
29869W        W82765  19.738  15.887   2.146
29870W        W82766  21.026  25.203   9.445
29871W        W82767   2.112  11.108   3.225
29872W        W82768  11.015   0.079   8.885
29873W        W82769  13.220  12.970   9.498
29874W        W82770  11.270   8.753   2.607
29875W        W82771  21.673  24.875   0.899
29876W        W82772   8.777  22.471   2.643
29877W        W82773  32.331   5.937   8.699
29878W        W82774   9.839  27.802   7.145
29879W        W82775  18.014   2.745   9.969
29880W        W82776  10.161  35.456   9.175
29881W        W82777   6.605  32.597  10.223
29882W        W82778   5.569  18.361   8.633
29883W        W82779   4.402  18.062   9.136
29884W        W82780  22.555  13.380   9.919
29885W        W82781   1.016  16.359   8.382
29886W        W82782  19.192  11.041  10.138
29887W        W82783  27.175  10.391   2.871
29888W        W82784  25.315  18.143   3.733
29889W        W82785   0.638  25.635   3.382
29890W        W82786  12.295   9.141  10.197
29891W        W82787   0.303   5.336   0.147
29892W        W82788  35.424  32.354   0.624
29893W        W82789   1.746  18.014   8.127
29894W        W82790  19.493  30.723   8.154
29895W        W82791  10.788  28.845   2.060
29896W        W82792  10.213  32.336   0.810
29897W        W82793   8.545  35.238   6.610
29898W        W82794  19.046  24.039   0.819
29899W        W82795  14.559   4.402   7.865
29900W        W82796   1.035   7.162   2.800
29901W        W82797   4.772  33.882   9.233
29902W        W82798  28.302   8.509   9.171
29903W        W82799  33.660   1.913   3.303
29904W        W82800  16.590  15.686   9.422
29905W        W82801  16.959   5.075   3.686
29906W        W82802  32.952  19.388   3.356
29907W        W82803  16.183  19.372   7.833
29908W        W82804  14.593  11.730   2.953
29909W        W82805  16.133  32.655   9.464
29910W        W82806  15.112  15.707   0.253
29911W        W82807   2.034  35.971   7.810
29912W        W82808   3.427  12.400   9.562
29913W        W82809  30.357   3.990   8.859
29914W        W82810   7.704  20.119   1.354
29915W        W82811  20.275  21.256   1.072
29916W        W82812   5.546   8.042   8.252
29917W        W82813  12.741  21.294   8.515
29918W        W82814   7.040  18.206   3.597
29919W        W82815  34.532  15.527   9.050
29920W        W82816  12.047  18.505   2.668
29921W        W82817  21.921  18.309   1.296
29922W        W82818  34.315   1.465   2.879
29923W        W82819   6.053  34.116   1.685
29924W        W82820   8.700  32.907   1.591
29925W        W82821  23.600  10.809   9.672
29926W        W82822  32.925  34.510   2.241
29927W        W82823   5.162  11.360   8.598
29928W        W82824   8.705  25.934  10.265
29929W        W82825  24.304  14.674   3.089
29930W        W82826  11.918  20.596   2.210
29931W        W82827  15.929  31.106   9.399
29932W        W82828  18.358  28.745   2.464
29933W        W82829   1.158   9.917   1.335
29934W        W82830  22.077  34.806   3.200
29935W        W82831   8.980  18.175   8.506
29936W        W82832  19.537  18.483   9.052
29937W        W82833  24.286  27.914   7.166
29938W        W82834  25.857   4.039   8.002
29939W        W82835   6.406  21.609   8.149
29940W        W82836  15.442   6.794   3.517
29941W        W82837   8.264   3.908   1.042
29942W        W82838  33.263   6.435   2.867
29943W        W82839  25.613  32.656   2.625
29944W        W82840  30.369  18.503   7.009
29945W        W82841   9.388  20.154   9.037
29946W        W82842  16.763  28.634   8.505
29947W        W82843  32.625  32.891   2.827
29948W        W82844  14.866   9.925   0.976
29949W        W82845  26.465   4.348   2.245
29950W        W82846  10.564  18.095   9.985
29951W        W82847  22.920   3.150   2.060
29952W        W82848  31.570  13.821   2.893
29953W        W82849   3.846   6.441   1.009
29954W        W82850  31.643  34.185   0.206
29955W        W82851   2.579  32.307   9.884
29956W        W82852  25.315   3.968   1.598
29957W        W82853  32.006  25.659   0.777
29958W        W82854  32.857   5.051   0.955
29959W        W82855  16.450  33.754   7.720
29960W        W82856  23.360   9.891   9.421
29961W        W82857  12.857  29.546   3.203
29962W        W82858  21.135  19.574  10.317
29963W        W82859  11.212  25.899   7.043
29964W        W82860  27.446   6.732   0.771
29965W        W82861  35.157   9.938   9.723
29966W        W82862  11.698   6.338   0.398
29967W        W82863  25.170  28.479  10.065
29968W        W82864   4.573  25.722   8.221
29969W        W82865  13.258  15.861   2.436
29970W        W82866  28.474  35.215   8.383
29971W        W82867  14.889  18.157   1.975
29972W        W82868  28.998  35.128   3.053
29973W        W82869  35.692   1.265  10.018
29974W        W82870  20.304   1.958   2.697
29975W        W82871  22.818  28.994   0.417
29976W        W82872  20.612  25.679  10.160
29977W        W82873  33.251   1.840   9.848
29978W        W82874  18.680  25.019   2.390
29979W        W82875  30.467  11.498   3.558
29980W        W82876  16.072   9.958   8.729
29981W        W82877  13.177  19.267   2.865
29982W        W82878   8.033  21.799   8.506
29983W        W82879  10.508  17.147   0.610
29984W        W82880   1.992  21.130   3.630
29985W        W82881   8.658  32.963   9.258
29986W        W82882  10.643   9.761   9.239
29987W        W82883  24.574   4.092   9.320
29988W        W82884  35.863  32.614   7.239
29989W        W82885  34.812  24.481   9.445
29990W        W82886  16.650   4.667   0.004
29991W        W82887  30.245   1.588   8.915
29992W        W82888  13.162  22.505   3.542
29993W        W82889  14.077   1.079   0.556
29994W        W82890  11.200  23.917   7.635
29995W        W82891  28.023  19.248   7.715
29996W        W82892  12.561  30.859   3.730
29997W        W82893  18.365   2.828   3.866
29998W        W82894  17.667  35.530   3.030
29999W        W82895  27.586  32.141   7.724
30000W        W82896   1.967  34.170   9.429
30001W        W82897  18.845  15.188   0.819
30002W        W82898  22.135  14.696   0.891
30003W        W82899  22.490  15.593   7.900
30004W        W82900   4.716   3.102   7.635
30005W        W82901  18.197  29.321   7.511
30006W        W82902  16.110  24.020   8.163
30007W        W82903  18.846  24.124  10.021
30008W        W82904  29.605   4.857  10.068
30009W        W82905  13.345  28.321   9.976
30010W        W82906  26.003  35.824   9.609
30011W        W82907  14.276   4.463   0.975
30012W        W82908   8.628   9.037   9.146
30013W        W82909   5.459  25.004   3.047
30014W        W82910  25.707  18.594   3.148
30015W        W82911  30.661  22.523   8.485
30016W        W82912   3.962   0.833   2.184
30017W        W82913  15.602   2.789   9.986
30018W        W82914  12.804  12.477   7.902
30019W        W82915  31.342  34.082   0.966
30020W        W82916  28.978  24.438   1.812
30021W        W82917   0.457   3.268   2.860
30022W        W82918   3.667  23.698   1.461
30023W        W82919   8.780  21.441   2.937
30024W        W82920  22.026  34.627   7.857
30025W        W82921  25.279  27.457   0.610
30026W        W82922  12.890   9.039   1.549
30027W        W82923  12.614   5.844   2.136
30028W        W82924  10.486  16.921   4.199
30029W        W82925  15.655  19.923   8.721
30030W        W82926  31.528  30.776   1.502
30031W        W82927  22.491  15.379   0.860
30032W        W82928  31.497   6.389   0.598
30033W        W82929   5.693  25.188   1.699
30034W        W82930  13.841  33.550   3.004
30035W        W82931  23.309   0.546   9.989
30036W        W82932  20.294  35.557   8.854
30037W        W82933   4.309  29.513   1.637
30038W        W82934  14.723   7.913   7.523
30039W        W82935  28.837  18.170   8.268
30040W        W82936   6.525  15.335   0.975
30041W        W82937   6.595  18.057   1.208
30042W        W82938   8.129  21.726  10.145
30043W        W82939  19.578  30.499   7.750
30044W        W82940  29.288  20.389   9.626
30045W        W82941   3.066  33.323   0.778
30046W        W82942  30.504   3.273   0.328
30047W        W82943  33.987  22.049   8.650
30048W        W82944  19.242   1.347   0.083
30049W        W82945   6.322   5.800   8.555
30050W        W82946  35.571  34.193   8.048
30051W        W82947  14.464  28.348   8.988
30052W        W82948  32.353  25.140   2.761
30053W        W82949  35.140   5.150   0.243
30054W        W82950  28.247  13.934   0.402
30055W        W82951  19.982  26.863   8.326
30056W        W82952  13.637  16.040   9.337
30057W        W82953  28.419  19.661   9.203
30058W        W82954  30.540   1.182   9.295
30059W        W82955  11.195  17.227   1.130
30060W        W82956  33.190  23.576   9.605
30061W        W82957  17.861  33.430   7.908
30062W        W82958  35.820   0.688   9.121
30063W        W82959  16.643  10.240   1.951
30064W        W82960  21.526   2.302   8.390
30065W        W82961  28.291  32.795   0.653
30066W        W82962  35.622  33.527   1.721
30067W        W82963  15.867  34.085   1.154
30068W        W82964  22.389  19.100   8.996
30069W        W82965  10.881  14.029   2.925
30070W        W82966  31.006  25.233   9.593
30071W        W82967  20.450  33.967   8.933
30072W        W82968   2.809  10.665   9.419
30073W        W82969   1.764  28.910   0.470
30074W        W82970  26.736  12.098   0.869
30075W        W82971  27.617  29.949   7.971
30076W        W82972  27.960  22.071   1.164
30077W        W82973  15.678  15.572   8.876
30078W        W82974  17.947  16.422   2.152
30079W        W82975  35.513  30.216   1.886
30080W        W82976   4.575  22.517   3.140
30081W        W82977  35.130  20.807   4.045
30082W        W82978  14.837  23.991   2.198
30083W        W82979  12.743   8.298   0.142
30084W        W82980  24.258  18.135   1.708
30085W        W82981  14.159  33.879   3.216
30086W        W82982   2.273  22.428  10.316
30087W        W82983  17.832  14.394   7.239
30088W        W82984   9.937  16.035   0.070
30089W        W82985  24.470  28.989   0.706
30090W        W82986  16.860   4.939   9.182
30091W        W82987   9.678  17.618   7.226
30092W        W82988  22.582  35.815   0.463
30093W        W82989  26.203  13.599   8.270
30094W        W82990  30.507  20.911   9.311
30095W        W82991   0.587  17.036   9.510
30096W        W82992   8.422  16.620   3.252
30097W        W82993   0.795   9.696   9.351
30098W        W82994  32.896   1.477   9.199
30099W        W82995  11.584  23.205   8.825
30100W        W82996  31.966  17.361   0.885
30101W        W82997  33.610  30.987  10.210
30102W        W82998  26.571   2.454   8.408
30103W        W82999  21.097  30.474   7.762
30104W        W83000  16.534   3.756   8.965
30105W        W83001   9.637  19.680   3.251
30106W        W83002  16.962   4.640   2.350
30107W        W83003  10.607  33.444   9.155
30108W        W83004  34.064  34.468   1.264
30109W        W83005  24.374  10.367   0.701
30110W        W83006  29.173   3.095   9.272
30111W        W83007  18.633  26.202   9.316
30112W        W83008  24.210   6.519   9.851
30113W        W83009  33.661   1.205   0.849
30114W        W83010   2.155   4.932   3.058
30115W        W83011   6.957  12.747   0.731
30116W        W83012  27.774  13.977   9.233
30117W        W83013  33.290   4.086   0.029
30118W        W83014   7.716  34.618   1.748
30119W        W83015  24.823  15.357   9.030
30120W        W83016   0.946  16.173   9.851
30121W        W83017   8.144  14.438   7.505
30122W        W83018   0.492  10.581   1.044
30123W        W83019  21.033   2.013  10.121
30124W        W83020  20.222   0.378   1.142
30125W        W83021   7.870  22.894   8.239
30126W        W83022   7.602   2.298   9.889
30127W        W83023   9.089  15.435   9.735
30128W        W83024   7.009   5.734   2.950
30129W        W83025  25.558  20.523   0.199
30130W        W83026  23.458   5.484   1.230
30131W        W83027  12.300   7.468   9.365
30132W        W83028   7.940  20.319  10.222
30133W        W83029  19.274  30.228   8.180
30134W        W83030   5.990  19.441   9.698
30135W        W83031   4.636   2.339   7.400
30136W        W83032  16.642  20.369   0.502
30137W        W83033   8.124  32.260  10.114
30138W        W83034  11.210  28.007   7.894
30139W        W83035  29.080   7.126   9.812
30140W        W83036  12.068   3.057  10.311
30141W        W83037  25.829   8.848   2.466
30142W        W83038   2.776  12.713   2.655
30143W        W83039  19.362  10.193   9.241
30144W        W83040   1.918  16.653   2.574
30145W        W83041  28.357  19.983   2.000
30146W        W83042  33.407   7.921   0.966
30147W        W83043  10.928   0.861   8.170
30148W        W83044  27.720  34.942   0.024
30149W        W83045  12.779   1.809   2.680
30150W        W83046  12.142   1.107   7.773
30151W        W83047  28.551  17.905   7.918
30152W        W83048   5.870  31.997   7.187
30153W        W83049   4.751   9.250   8.758
30154W        W83050  32.321  16.792   7.953
30155W        W83051   1.920  15.589   0.854
30156W        W83052   7.155  32.511   0.718
30157W        W83053  14.335   0.383   0.959
30158W        W83054   3.315  12.048   0.151
30159W        W83055  20.805  23.037   8.480
30160W        W83056  27.848   9.901   3.090
30161W        W83057  33.075  17.077   9.518
30162W        W83058   2.629   5.034   0.538
30163W        W83059  23.502  11.873   9.392
30164W        W83060   6.254  16.820   0.728
30165W        W83061  32.037  34.865   2.291
30166W        W83062  17.601  26.157   9.630
30167W        W83063   7.613  35.425   8.705
30168W        W83064   0.757  15.885   8.615
30169W        W83065   5.287  27.334  10.249
30170W        W83066   0.597   2.484   0.573
30171W        W83067  17.892  11.708   9.048
30172W        W83068   4.212   2.525   1.826
30173W        W83069   9.009  29.413   8.901
30174W        W83070  28.273  33.271   0.791
30175W        W83071  32.411  19.268   8.045
30176W        W83072   3.776  20.338   3.545
30177W        W83073   1.471  10.546   0.308
30178W        W83074   0.633  13.404   1.807
30179W        W83075  20.482  14.697   1.020
30180W        W83076  18.635  22.133   1.586
30181W        W83077  10.567  11.218   1.418
30182W        W83078  11.163  32.553   0.672
30183W        W83079  34.927   1.967   6.954
30184W        W83080  32.610  30.566   0.508
30185W        W83081  32.036  20.963   2.303
30186W        W83082  19.822  28.065  10.134
30187W        W83083  28.247  22.797   1.100
30188W        W83084  18.249  17.961   1.790
30189W        W83085  17.648  30.730   2.755
30190W        W83086  26.700  22.516   2.527
30191W        W83087  13.290  22.419   2.075
30192W        W83088  33.331   5.871   0.239
30193W        W83089  22.337  31.758   0.787
30194W        W83090  34.714  16.402  10.265
30195W        W83091  25.298   5.197   0.587
30196W        W83092  30.871   9.798  10.329
30197W        W83093  25.657   9.396   3.332
30198W        W83094  12.876   1.288   1.006
30199W        W83095   9.622  31.165   2.228
30200W        W83096  10.288  24.445   1.292
30201W        W83097  28.413  22.330   2.443
30202W        W83098  25.486  28.972   8.619
30203W        W83099  30.447  30.920   1.805
30204W        W83100  16.277  21.814   0.222
30205W        W83101  17.888  24.937   3.952
30206W        W83102  20.076  27.461   0.348
30207W        W83103  34.695   1.963   9.170
30208W        W83104  10.532  19.603  10.068
30209W        W83105   4.409   3.254   1.099
30210W        W83106  21.656   2.319   2.263
30211W        W83107  21.702  29.486   2.956
30212W        W83108  23.375  15.257   1.104
30213W        W83109  29.913  21.454   1.684
30214W        W83110  14.885   2.736   1.749
30215W        W83111  20.509  35.939   1.865
30216W        W83112  18.361   4.779   1.173
30217W        W83113  22.845  14.548   8.925
30218W        W83114  15.983  24.679   9.078
30219W        W83115  22.967  29.078   1.624
30220W        W83116  10.346  18.889   2.716
30221W        W83117  19.155  22.682  10.194
30222W        W83118  26.088  23.899   0.546
30223W        W83119  18.489  12.151   3.602
30224W        W83120  33.385  32.320   9.535
30225W        W83121   4.406   4.058   9.665
30226W        W83122  21.792   5.781   9.589
30227W        W83123  28.656  14.877   8.305
30228W        W83124  10.082   3.993   0.138
30229W        W83125   5.965   9.153   9.452
30230W        W83126   0.061   3.831   0.653
30231W        W83127  13.508  19.321   0.620
30232W        W83128  26.813   2.349  10.298
30233W        W83129  24.196  30.882   1.844
30234W        W83130  30.800  12.663   1.421
30235W        W83131  33.577  17.761   0.501
30236W        W83132  32.190   2.831   9.336
30237W        W83133  35.865  30.813   8.134
30238W        W83134  22.601  14.198   9.283
30239W        W83135  23.347   5.617   2.763
30240W        W83136  30.984  32.824   6.723
30241W        W83137  24.810  31.247   3.139
30242W        W83138   5.459  16.553   2.927
30243W        W83139  25.449  12.634   0.313
30244W        W83140  33.072  29.856   3.016
30245W        W83141  12.381  21.612   2.246
30246W        W83142  30.726   3.840   1.035
30247W        W83143  29.764   8.217   2.633
30248W        W83144   5.361  33.420   1.863
30249W        W83145   9.594   0.339   8.633
30250W        W83146  12.209   8.742   7.461
30251W        W83147   6.393  35.213   6.856
30252W        W83148  12.148   0.815   6.948
30253W        W83149  11.212  18.073   0.115
30254W        W83150   0.765  22.463   0.545
30255W        W83151  22.374   0.744   8.317
30256W        W83152  20.160   0.789   1.386
30257W        W83153   8.206   5.169   1.000
30258W        W83154   2.542  15.224   8.514
30259W        W83155  16.263  27.934   9.828
30260W        W83156  32.776  34.661   8.080
30261W        W83157   8.824  34.725   9.005
30262W        W83158   6.521  18.068   7.808
30263W        W83159   0.690  33.669   9.183
30264W        W83160   9.518  35.090   3.283
30265W        W83161  14.291  29.703   2.998
30266W        W83162  22.199  21.367   2.050
30267W        W83163  16.344  13.231   0.526
30268W        W83164  31.309  24.462   3.098
30269W        W83165  16.546  27.800   2.703
30270W        W83166  28.964  26.856   1.030
30271W        W83167  24.534  18.432   0.566
30272W        W83168   1.462  34.048   9.352
30273W        W83169  14.847  11.267   1.557
30274W        W83170  30.899  34.775   0.179
30275W        W83171  10.503   8.970   8.228
30276W        W83172  29.919  18.748   0.719
30277W        W83173  24.976  14.452   1.459
30278W        W83174  27.175   8.827   2.761
30279W        W83175  22.636   5.892   0.791
30280W        W83176  14.755  25.993   1.807
30281W        W83177   0.063   7.673   8.978
30282W        W83178  22.144  16.979   9.719
30283W        W83179   2.115  27.140   2.049
30284W        W83180  25.890   1.952   7.413
30285W        W83181  30.149  22.694   1.976
30286W        W83182   6.398  32.816   8.334
30287W        W83183   3.156  26.703  10.116
30288W        W83184  33.180   2.507   8.026
30289W        W83185  33.216   5.275   0.618
30290W        W83186  23.828  14.623   1.130
30291W        W83187  35.581   8.784   1.490
30292W        W83188  12.980   7.882   8.893
30293W        W83189  23.871   3.798  10.137
30294W        W83190  29.669  27.509   8.427
30295W        W83191   0.016  22.125   9.185
30296W        W83192  17.474  27.390   8.448
30297W        W83193   6.471   1.890   2.925
30298W        W83194  33.681  34.676   8.548
30299W        W83195  23.307  32.309   0.158
30300W        W83196   5.901  13.952   0.293
30301W        W83197   5.130  24.248   0.894
30302W        W83198   0.786   2.511  10.028
30303W        W83199  16.185  11.719   0.735
30304W        W83200   4.173  30.016   9.676
30305W        W83201  30.845  22.196   7.925
30306W        W83202   4.201  33.950   0.673
30307W        W83203  12.485  19.184   2.290
30308W        W83204  35.630  10.100   7.482
30309W        W83205   6.390  30.100   2.167
30310W        W83206  10.993   1.639   1.429
30311W        W83207  31.337  13.342   2.057
30312W        W83208  27.648  33.818   7.007
30313W        W83209   4.484  10.834   3.938
30314W        W83210   6.023  31.591   1.735
30315W        W83211  17.185  13.376   9.217
30316W        W83212  12.012   4.610   9.364
30317W        W83213  16.545  13.558   9.901
30318W        W83214  11.360   1.620   7.908
30319W        W83215  24.725  34.586   1.258
30320W        W83216  15.982  14.553   1.944
30321W        W83217   0.634   1.690   0.150
30322W        W83218  35.642  11.004   8.741
30323W        W83219  18.280   0.360   1.894
30324W        W83220  10.485  22.623  10.211
30325W        W83221   7.080  24.859   1.178
30326W        W83222   8.195  34.673   2.005
30327W        W83223  29.400  10.356   2.713
30328W        W83224  34.832  28.416   2.230
30329W        W83225  34.755  24.307   1.134
30330W        W83226   0.253  32.056   3.564
30331W        W83227   4.957  10.011   2.333
30332W        W83228  26.536  30.193   8.815
30333W        W83229  24.301  34.159   1.261
30334W        W83230  29.421   3.217   1.201
30335W        W83231  17.872   4.316   7.783
30336W        W83232   0.370  28.811  10.102
30337W        W83233  18.888  25.421   8.482
30338W        W83234  34.416   0.958   0.256
30339W        W83235  14.142   1.745   8.244
30340W        W83236  20.606  21.431   0.777
30341W        W83237   7.264   0.887   8.388
30342W        W83238  11.637  17.380   3.153
30343W        W83239  13.055   0.485   7.981
30344W        W83240  19.937  12.296   2.381
30345W        W83241   6.904  10.635   0.971
30346W        W83242  16.572   0.337  10.152
30347W        W83243   6.186   4.403   9.447
30348W        W83244   6.169  18.499   2.600
30349W        W83245  19.214  25.400   9.578
30350W        W83246   5.566  14.281   7.506
30351W        W83247   6.151  26.223   2.458
30352W        W83248  13.177  19.658   2.491
30353W        W83249   0.533   9.382   2.490
30354W        W83250   7.677   7.993   1.430
30355W        W83251  15.225  33.725   3.321
30356W        W83252  20.164  24.554   8.765
30357W        W83253  22.558  20.780   8.438
30358W        W83254   7.750  11.650   8.331
30359W        W83255   9.334  17.290   0.098
30360W        W83256  34.547  15.603  10.062
30361W        W83257  13.802  18.925   3.925
30362W        W83258  26.035  26.345   8.667
30363W        W83259  11.335   7.208   9.152
30364W        W83260  16.627  10.858   0.697
30365W        W83261  32.955  11.883   0.955
30366W        W83262  16.088  28.605   1.895
30367W        W83263  33.202  18.368   8.469
30368W        W83264  21.184  17.482   8.428
30369W        W83265  32.568   2.280   1.344
30370W        W83266  26.074   3.497   3.608
30371W        W83267  26.906   0.803   1.773
30372W        W83268  23.872  14.606   0.179
30373W        W83269  21.158  13.012   8.697
30374W        W83270   3.733  21.321   8.738
30375W        W83271  34.448   2.224   2.214
30376W        W83272  18.121  32.292   7.533
30377W        W83273  26.998  12.336   8.323
30378W        W83274  21.363   3.867   0.853
30379W        W83275   3.055   8.874   1.753
30380W        W83276  23.151  13.101   9.124
30381W        W83277  14.276   2.355  10.201
30382W        W83278  16.065  30.213   9.474
30383W        W83279  17.819   8.853   0.678
30384W        W83280  34.552  23.050   1.798
30385W        W83281  23.225  28.175   2.149
30386W        W83282  11.001  26.996   8.481
30387W        W83283  10.817  19.336   8.876
30388W        W83284   0.111  21.934   0.351
30389W        W83285   9.529   9.920   1.993
30390W        W83286  33.638   6.042   1.189
30391W        W83287  27.564  17.363   1.831
30392W        W83288  33.424  34.805   0.678
30393W        W83289   2.992   2.087   1.105
30394W        W83290  20.964  12.375   1.080
30395W        W83291  14.351  16.573   7.743
30396W        W83292  12.424   0.444   7.173
30397W        W83293   2.320  33.712   2.750
30398W        W83294  21.000   6.119   1.284
30399W        W83295  22.601  21.641   3.439
30400W        W83296   3.923  23.686   3.631
30401W        W83297   4.933  22.092   0.092
30402W        W83298  17.841  32.642   0.155
30403W        W83299  20.188  24.938   1.189
30404W        W83300  21.244  16.153   7.422
30405W        W83301  13.106  13.079   1.057
30406W        W83302   5.026  22.911  10.006
30407W        W83303  35.726   1.037   7.018
30408W        W83304  32.934   7.117   3.574
30409W        W83305   5.054  26.922   9.382
30410W        W83306  10.670   6.539   8.019
30411W        W83307   3.626  26.900   3.395
30412W        W83308  29.814  17.924   2.681
30413W        W83309  30.028   3.068   1.973
30414W        W83310  29.705  26.421   2.793
30415W        W83311   8.594   5.220   7.483
30416W        W83312  31.293  27.674   7.761
30417W        W83313  10.268  13.452   2.120
30418W        W83314   7.977  11.731   1.301
30419W        W83315  34.111  20.185   3.183
30420W        W83316  28.213  12.095   3.193
30421W        W83317  21.838  12.869   1.224
30422W        W83318  32.934  16.313   9.182
30423W        W83319  21.061   1.920   7.389
30424W        W83320  23.819  11.571   0.396
30425W        W83321  28.141   1.640   7.436
30426W        W83322  17.918   8.192   3.490
30427W        W83323  12.782  17.499   1.860
30428W        W83324  24.753  18.022   1.717
30429W        W83325  10.011  31.112   8.640
30430W        W83326  14.363  12.760   8.915
30431W        W83327  12.840  14.855   0.383
30432W        W83328  16.945  14.995   2.768
30433W        W83329  34.185  17.010   2.705
30434W        W83330   4.414  32.600   1.686
30435W        W83331  20.934  26.096   0.703
30436W        W83332  11.754  20.050  10.223
30437W        W83333  19.970  19.780   2.943
30438W        W83334  19.821  15.346   9.948
30439W        W83335  22.598   2.732  10.254
30440W        W83336  10.902   4.918   1.823
30441W        W83337   8.282  22.288   6.970
30442W        W83338   6.017  11.575   1.333
30443W        W83339  23.332  19.119   0.629
30444W        W83340  13.647   1.333   2.960
30445W        W83341   5.803  22.620   1.280
30446W        W83342  14.665   4.914   3.227
30447W        W83343   1.210   4.479   9.320
30448W        W83344  21.185   7.799   3.088
30449W        W83345  27.296  17.649   7.591
30450W        W83346  28.939  28.130   1.738
30451W        W83347  15.215  18.038   4.168
30452W        W83348  18.214  31.360   0.472
30453W        W83349  33.751  19.995   9.599
30454W        W83350  21.629   8.511   3.491
30455W        W83351   6.703  28.096   2.616
30456W        W83352  12.316  12.541   8.051
30457W        W83353  30.238  20.628   8.475
30458W        W83354  25.220  32.335   1.763
30459W        W83355  15.071  33.804   9.458
30460W        W83356   0.282  18.393   2.884
30461W        W83357  18.883  33.256   8.397
30462W        W83358  17.824   9.117   0.085
30463W        W83359  29.431   9.712   0.601
30464W        W83360  10.285   4.857   3.534
30465W        W83361  28.965  12.760   7.992
30466W        W83362   6.061  28.802   0.998
30467W        W83363  23.032  24.447   9.782
30468W        W83364  34.906  12.011   9.582
30469W        W83365  34.220  20.078   9.145
30470W        W83366  34.419  14.766  10.319
30471W        W83367   6.731  29.373   8.231
30472W        W83368  32.645  34.992   7.693
30473W        W83369   9.049  33.969   0.008
30474W        W83370  11.092   1.396   7.048
30475W        W83371   3.317  12.050   9.963
30476W        W83372  34.324  18.842   0.643
30477W        W83373  10.159  15.875   1.255
30478W        W83374  19.699  22.167   7.982
30479W        W83375  18.914   3.558   1.473
30480W        W83376  20.785   3.088   8.619
30481W        W83377  17.199  35.421   7.109
30482W        W83378   5.690  17.164   7.675
30483W        W83379  22.390  33.246   0.213
30484W        W83380  17.190   2.529   7.839
30485W        W83381  31.211  27.461   3.116
30486W        W83382   4.364  23.296   0.764
30487W        W83383  32.848  26.207   3.350
30488W        W83384  30.143  17.761   1.009
30489W        W83385  10.489   4.849   1.297
30490W        W83386  16.207  32.839   7.671
30491W        W83387   5.273  16.650   1.870
30492W        W83388  20.649  19.020   9.481
30493W        W83389  31.056  14.716   9.912
30494W        W83390  22.789  13.152   8.189
30495W        W83391  27.279   8.598   7.977
30496W        W83392   8.137  11.549   3.310
30497W        W83393  31.998  26.523   9.327
30498W        W83394  16.545  33.992   9.340
30499W        W83395  34.023  30.952   2.758
30500W        W83396   5.782  30.925   9.063
30501W        W83397   5.725  16.723   7.993
30502W        W83398  11.739  21.854   7.854
30503W        W83399  29.976  13.382   7.366
30504W        W83400  17.451  34.914   1.728
30505W        W83401   8.998   2.922   8.856
30506W        W83402  28.675  25.971   8.476
30507W        W83403  24.947   7.857   2.858
30508W        W83404  11.264  33.633   7.953
30509W        W83405  16.906  26.654   3.269
30510W        W83406  34.593  12.793   9.566
30511W        W83407  33.372   9.784   8.585
30512W        W83408  13.203  24.382   8.066
30513W        W83409  33.904  33.724   1.601
30514W        W83410   8.434  35.972   9.489
30515W        W83411  27.091   0.053   2.830
30516W        W83412  25.796  24.938   1.503
30517W        W83413   9.684  21.609   0.802
30518W        W83414   1.374  19.579   2.590
30519W        W83415  22.333  23.587  10.011
30520W        W83416  10.843  12.323   7.838
30521W        W83417  18.110  33.404   8.418
30522W        W83418  12.861  33.726   2.925
30523W        W83419  21.878  11.121   7.841
30524W        W83420  34.720  18.979   1.332
30525W        W83421   2.863  23.063  10.126
30526W        W83422  22.400  21.590   7.078
30527W        W83423  23.500   8.290  10.262
30528W        W83424  29.264  21.032   0.250
30529W        W83425  17.763  23.659   0.975
30530W        W83426  20.725  18.002   0.765
30531W        W83427  30.761  32.493   1.975
30532W        W83428   5.062  30.122   0.518
30533W        W83429  21.473   0.024   1.725
30534W        W83430  14.479   1.341   1.003
30535W        W83431  20.825  31.964   0.796
30536W        W83432  12.545  31.217   0.038
30537W        W83433   4.694  13.237   1.654
30538W        W83434   0.510  16.574   3.178
30539W        W83435   8.234  18.137   9.049
30540W        W83436  28.245   4.293   8.999
30541W        W83437   9.304  12.591   9.436
30542W        W83438  30.639  24.694   8.271
30543W        W83439   5.767  29.954   2.200
30544W        W83440  24.435  18.007   8.078
30545W        W83441  22.891   9.340   7.338
30546W        W83442  18.394  20.559   3.214
30547W        W83443   8.147  16.374   0.590
30548W        W83444   9.530  33.224   1.167
30549W        W83445  24.876  17.909   7.793
30550W        W83446  10.052   0.284   8.753
30551W        W83447  23.472   9.116   0.677
30552W        W83448  18.599  35.056   8.375
30553W        W83449  13.992  17.028   0.678
30554W        W83450  26.737   0.417   2.584
30555W        W83451  12.793  31.366   3.737
30556W        W83452  12.291   1.498   1.733
30557W        W83453  11.198  22.871   9.575
30558W        W83454  27.627  17.939   8.966
30559W        W83455  19.796  22.806   2.330
30560W        W83456  19.948  25.764   8.966
30561W        W83457  13.188  12.191   2.681
30562W        W83458  32.664  32.072   0.298
30563W        W83459  13.979  26.011   9.014
30564W        W83460   6.305   8.575   8.382
30565W        W83461   7.559  29.220   2.711
30566W        W83462  10.020  16.409   1.583
30567W        W83463   4.684  11.173   1.145
30568W        W83464  12.145   6.521   3.344
30569W        W83465   2.170  20.190   0.211
30570W        W83466  15.001  30.917   0.597
30571W        W83467  15.787  20.322   0.785
30572W        W83468  19.338  29.595   1.003
30573W        W83469  25.362  35.084   0.784
30574W        W83470   9.038  27.412   1.411
30575W        W83471  34.486  17.127   1.102
30576W        W83472   4.224  24.249   9.719
30577W        W83473  24.503  17.653   2.059
30578W        W83474  13.892  27.024   0.315
30579W        W83475  15.434  20.418   7.863
30580W        W83476   2.212  23.359  10.218
30581W        W83477   3.459  31.291   3.212
30582W        W83478   8.307   7.646   8.900
30583W        W83479   4.533  17.313   8.923
30584W        W83480  23.527  25.936   7.562
30585W        W83481  22.625  24.934   1.041
30586W        W83482  23.796  14.447   2.962
30587W        W83483   3.185  33.499   0.087
30588W        W83484  22.175  10.524   0.169
30589W        W83485  23.750   4.550   9.307
30590W        W83486  12.857  27.099   1.375
30591W        W83487   7.564  20.353   9.811
30592W        W83488  23.200   3.027   2.499
30593W        W83489  24.958  30.296   9.474
30594W        W83490  14.378  34.799   8.899
30595W        W83491  18.139  19.466   7.888
30596W        W83492   7.843   6.221   1.424
30597W        W83493   3.322  25.488   8.769
30598W        W83494  31.957   3.285   2.708
30599W        W83495  24.502  11.088   2.230
30600W        W83496  27.978  32.971   8.901
30601W        W83497   2.862  26.637   2.802
30602W        W83498  15.208  17.952   2.774
30603W        W83499   5.680  24.832   2.055
30604W        W83500   2.743   9.880   9.937
30605W        W83501   5.100  22.866   0.729
30606W        W83502  33.971   6.542  10.251
30607W        W83503  30.846  10.598   1.445
30608W        W83504  11.496  17.085   1.503
30609W        W83505  23.049  23.558   9.606
30610W        W83506  14.674   1.289   9.005
30611W        W83507   1.389  12.072   1.736
30612W        W83508  34.360  28.657   8.379
30613W        W83509   4.358   7.882   8.783
30614W        W83510   5.039  33.950   3.075
30615W        W83511  28.755  33.107   7.807
30616W        W83512  23.782  13.308   0.303
30617W        W83513  16.815  34.167   2.775
30618W        W83514   7.298  27.404   9.456
30619W        W83515  12.550  19.786   3.081
30620W        W83516  14.548  24.526   1.514
30621W        W83517  15.242  20.119   1.806
30622W        W83518  31.172  31.937   9.375
30623W        W83519   2.401  20.521   9.483
30624W        W83520  21.553  26.168   8.616
30625W        W83521  32.113  11.793   9.185
30626W        W83522  35.332  12.520   1.875
30627W        W83523  34.821   0.551   0.805
30628W        W83524  33.815  34.937   8.061
30629W        W83525  28.465  32.302   2.794
30630W        W83526  20.012   7.977   7.807
30631W        W83527   8.386   2.931   3.295
30632W        W83528  21.783   1.444   0.060
30633W        W83529  30.735   4.344   8.374
30634W        W83530   5.585  27.959   8.198
30635W        W83531  22.130   2.046   1.957
30636W        W83532  34.222  35.083   0.989
30637W        W83533  30.638  22.993   9.563
30638W        W83534  12.144  31.778  10.155
30639W        W83535   4.218  32.175   8.616
30640W        W83536  15.493   7.816   1.555
30641W        W83537  32.170  23.264   8.488
30642W        W83538  25.841   7.404   8.276
30643W        W83539  28.307   3.182   9.259
30644W        W83540  18.621   5.350   9.474
30645W        W83541  21.331  28.953   7.772
30646W        W83542  12.508  30.842   8.910
30647W        W83543  34.515  12.511   7.404
30648W        W83544   8.595  23.678   1.947
30649W        W83545   4.858  27.369   7.416
30650W        W83546  22.620  27.463   3.558
30651W        W83547   4.961  21.614   1.181
30652W        W83548  14.525   6.064   0.382
30653W        W83549  19.613  23.252   9.822
30654W        W83550  34.821  18.780   0.425
30655W        W83551  22.453  24.309   7.840
30656W        W83552  12.971  11.358   2.023
30657W        W83553  22.452  18.901   3.220
30658W        W83554   0.492   0.906   9.937
30659W        W83555  32.079  30.715   0.312
30660W        W83556   3.158  22.241   2.340
30661W        W83557  35.668   4.473   2.980
30662W        W83558  14.062  23.881   8.960
30663W        W83559   5.494  29.811   8.432
30664W        W83560   1.875  19.404   2.376
30665W        W83561  14.753   2.633   1.247
30666W        W83562   8.015  15.523   8.215
30667W        W83563  21.650  14.962   9.162
30668W        W83564  33.195  10.326   7.966
30669W        W83565   7.900  26.990   1.019
30670W        W83566  33.181  33.334  10.114
30671W        W83567  11.001   9.950   1.355
30672W        W83568  29.697   7.896   1.401
30673W        W83569  14.811  26.750   7.525
30674W        W83570   8.782  26.696   7.226
30675W        W83571   4.967  20.678   7.180
30676W        W83572  10.676   3.732   9.932
30677W        W83573  12.061   8.381   0.918
30678W        W83574  33.737   3.556   0.709
30679W        W83575  20.522  18.770   9.933
30680W        W83576   0.684  14.931   8.624
30681W        W83577  32.545   6.218   3.235
30682W        W83578  19.878  16.016   8.058
30683W        W83579   0.073  24.403   0.963
30684W        W83580  20.954  25.345   0.009
30685W        W83581  12.600  33.225   0.340
30686W        W83582  17.135  12.167   1.734
30687W        W83583   5.620  15.192   2.499
30688W        W83584  33.686  16.385  10.090
30689W        W83585  35.460  22.863   8.977
30690W        W83586  14.132  29.998   1.066
30691W        W83587  24.517  11.822   2.952
30692W        W83588   0.656  35.092   1.369
30693W        W83589  15.544   6.494   1.440
30694W        W83590  30.165  34.711   1.097
30695W        W83591  11.748  13.881   1.939
30696W        W83592  26.450   5.738  10.259
30697W        W83593  34.246  28.108   7.902
30698W        W83594  32.950   3.616   2.644
30699W        W83595  20.136   3.372   1.373
30700W        W83596  29.116  31.947   2.590
30701W        W83597  10.071  13.643   2.686
30702W        W83598  32.366  14.286   3.320
30703W        W83599  15.605  11.303   2.354
30704W        W83600  33.824   1.565   2.657
30705W        W83601   0.375   8.194   9.756
30706W        W83602  19.397  12.471   3.370
30707W        W83603  11.797  23.477   0.332
30708W        W83604   8.711  35.257   9.736
30709W        W83605  33.925  22.694   9.720
30710W        W83606   0.848  20.946  10.046
30711W        W83607  25.056  26.176   9.421
30712W        W83608   6.089  26.202   9.994
30713W        W83609  14.095  20.109   7.386
30714W        W83610   9.294  16.279   0.840
30715W        W83611  15.812  22.843   3.145
30716W        W83612  34.597  23.819   3.856
30717W        W83613   9.384  10.502   2.802
30718W        W83614  32.476   6.723   3.313
30719W        W83615  19.320  29.762   0.296
30720W        W83616  32.510  24.341  10.054
30721W        W83617   5.666  35.166   0.977
30722W        W83618  34.190  31.422   9.740
30723W        W83619  27.973  18.399   7.911
30724W        W83620   1.281   1.850   8.931
30725W        W83621   4.071   8.095   8.287
30726W        W83622  11.806  31.464   2.257
30727W        W83623  24.923  25.948   9.900
30728W        W83624  32.778  20.444   9.638
30729W        W83625  16.855  21.930   2.632
30730W        W83626  22.466   8.312   2.598
30731W        W83627  32.863   2.259   9.726
30732W        W83628   0.203  11.357   1.664
30733W        W83629  10.294  14.764   0.463
30734W        W83630   1.990  27.816   3.182
30735W        W83631  11.507  25.811   3.107
30736W        W83632   1.524  35.431   0.924
30737W        W83633  16.882  28.259   2.205
30738W        W83634  15.895  17.427   1.227
30739W        W83635  29.180  28.645   0.924
30740W        W83636  10.294  12.576   9.647
30741W        W83637   8.830  12.357   7.628
30742W        W83638   6.101   2.860   0.043
30743W        W83639   8.919  12.882   1.748
30744W        W83640  17.117  16.044   1.014
30745W        W83641  27.365  20.882   8.971
30746W        W83642  32.351  16.440   9.895
30747W        W83643  32.866  14.303   9.447
30748W        W83644  33.446   0.164   2.320
30749W        W83645  18.202  27.155   8.461
30750W        W83646  28.355   0.072   9.029
30751W        W83647  13.237  12.012   1.786
30752W        W83648  32.559   2.388   8.866
30753W        W83649  26.301  21.841   9.334
30754W        W83650  32.156  13.238   0.352
30755W        W83651  30.688  11.286   1.852
30756W        W83652   4.259  26.090   2.554
30757W        W83653  13.697   3.501   8.305
30758W        W83654   4.780   3.400   2.693
30759W        W83655  33.623  34.147   1.521
30760W        W83656  24.142  25.859   7.741
30761W        W83657  10.840  28.542   9.804
30762W        W83658  33.770   2.231   7.489
30763W        W83659  27.877  22.199   7.712
30764W        W83660  33.491  29.975  10.274
30765W        W83661  27.641  18.794   0.188
30766W        W83662  19.937  29.636   0.481
30767W        W83663  12.548  34.433  10.223
30768W        W83664  24.915  16.293   0.297
30769W        W83665  24.235  35.840  10.061
30770W        W83666   1.853  14.060   9.078
30771W        W83667  33.739   6.562   0.356
30772W        W83668   5.323  23.375   2.478
30773W        W83669  22.038  12.431   8.843
30774W        W83670   1.031  16.731   3.957
30775W        W83671  11.550  26.817   8.005
30776W        W83672   6.829  35.567   1.584
30777W        W83673  33.647  30.029   1.618
30778W        W83674  28.972  29.885   1.380
30779W        W83675   8.702  16.859   0.024
30780W        W83676  32.109  31.373   7.816
30781W        W83677   5.482   7.693   4.197
30782W        W83678   7.151  34.866   0.039
30783W        W83679  12.620   2.228   0.014
30784W        W83680  35.831   8.305   0.213
30785W        W83681  11.670  22.622   1.935
30786W        W83682  34.966  27.571   0.437
30787W        W83683  28.245   6.439   7.537
30788W        W83684  31.914  32.019   3.618
30789W        W83685  25.631   0.430   1.865
30790W        W83686  25.503   6.787  10.316
30791W        W83687  10.176  13.784   8.075
30792W        W83688  12.005  29.779   3.354
30793W        W83689   8.739  15.879   1.299
30794W        W83690  15.605  34.952   0.311
30795W        W83691  12.603  30.001   8.221
30796W        W83692  35.889  10.519   0.335
30797W        W83693  15.201  17.008   2.683
30798W        W83694  20.918  25.216   2.430
30799W        W83695  12.057   5.136   2.020
30800W        W83696  11.368   5.572   7.736
30801W        W83697  16.213   1.416   7.979
30802W        W83698  14.517  14.806   8.410
30803W        W83699   7.314  12.388   8.848
30804W        W83700  31.675  12.512   8.009
30805W        W83701   4.410  10.935   8.874
30806W        W83702  26.751   6.955   1.203
30807W        W83703  11.002   1.695   9.597
30808W        W83704  12.607   3.394  10.300
30809W        W83705  14.829  15.953   9.155
30810W        W83706  30.463   7.917   9.394
30811W        W83707  15.066  31.260   9.351
30812W        W83708   7.357  16.003   0.163
30813W        W83709   4.636   2.944   2.851
30814W        W83710  23.252   6.515   8.132
30815W        W83711  12.488   4.253   1.515
30816W        W83712  26.154  13.307   0.526
30817W        W83713  33.031  29.993   8.306
30818W        W83714  33.131  14.336   2.337
30819W        W83715  22.969   3.525   0.103
30820W        W83716   5.469  21.869   3.587
30821W        W83717  11.767  25.505   7.635
30822W        W83718  27.019  31.251   8.198
30823W        W83719   1.216  27.011   0.900
30824W        W83720  26.217  31.585   2.362
30825W        W83721   9.441  27.994   0.719
30826W        W83722   8.365  35.399   8.739
30827W        W83723   4.614   7.140   2.049
30828W        W83724   4.708   9.118   0.060
30829W        W83725   9.634  11.572   7.193
30830W        W83726  10.890   8.859   9.091
30831W        W83727  20.003  34.380   8.952
30832W        W83728  27.715  17.808   7.249
30833W        W83729  24.985  21.011   8.488
30834W        W83730  10.489   8.350   7.632
30835W        W83731  18.169   1.771   9.197
30836W        W83732  31.111  26.874   7.263
30837W        W83733   9.415  23.615   0.129
30838W        W83734  11.995  10.145   9.595
30839W        W83735   1.457  18.809   0.640
30840W        W83736  22.696  20.387   2.476
30841W        W83737   0.787   4.941   0.217
30842W        W83738  18.750  32.176   8.213
30843W        W83739  22.465  32.787   1.740
30844W        W83740  35.877   8.905   8.193
30845W        W83741  34.960   3.098   0.559
30846W        W83742  31.546   3.600   7.700
30847W        W83743   5.245   0.176   1.102
30848W        W83744   8.958  34.728   2.498
30849W        W83745  34.444  26.436   9.588
30850W        W83746  10.797   6.183  10.020
30851W        W83747  28.839  19.126   2.289
30852W        W83748   8.990  35.130   7.648
30853W        W83749  23.455  27.307   2.436
30854W        W83750  19.760  22.022   0.944
30855W        W83751  13.321  34.258  10.337
30856W        W83752  24.220  23.777   0.112
30857W        W83753   2.819  26.001   2.556
30858W        W83754   9.725   8.138   2.018
30859W        W83755   3.126  16.929   2.932
30860W        W83756   8.021  19.752   1.312
30861W        W83757   6.838   9.565   9.837
30862W        W83758  22.324   8.364   9.276
30863W        W83759   5.300  25.458   1.836
30864W        W83760  24.358  19.158   9.373
30865W        W83761   2.031  13.178  10.124
30866W        W83762  12.836  27.346   8.397
30867W        W83763  11.083  11.374   9.946
30868W        W83764  27.078   6.533   8.790
30869W        W83765  23.545  10.035   8.970
30870W        W83766  23.301  25.360   1.099
30871W        W83767   9.458  12.289   2.841
30872W        W83768  20.968   9.631   0.804
30873W        W83769  33.659  22.291   3.244
30874W        W83770   4.860   2.108   3.363
30875W        W83771   2.060   1.771   9.583
30876W        W83772  28.543   2.552   8.220
30877W        W83773  28.361   7.353   9.597
30878W        W83774  17.622  25.493   1.620
30879W        W83775  13.017  13.786   9.236
30880W        W83776  34.569   3.534  10.214
30881W        W83777  30.922   5.143   9.892
30882W        W83778  14.996  25.681   9.621
30883W        W83779  11.194  28.101  10.021
30884W        W83780  12.946  32.086   2.399
30885W        W83781   1.088  30.588   3.541
30886W        W83782   5.630  12.854   7.932
30887W        W83783  22.521  15.242   2.799
30888W        W83784  35.993   4.822   1.418
30889W        W83785  35.457  22.284   8.300
30890W        W83786  31.760   6.000   8.033
30891W        W83787   9.407   7.986   9.658
30892W        W83788  10.469   2.427   0.802
30893W        W83789  32.162   2.544   2.371
30894W        W83790  17.483   9.791   2.340
30895W        W83791  28.796  25.194   9.459
30896W        W83792  20.348  23.322   3.083
30897W        W83793  17.566  32.331   1.936
30898W        W83794  17.021  29.805   9.711
30899W        W83795  18.816  20.459   0.052
30900W        W83796   3.294  23.659   1.844
30901W        W83797   0.443   6.445   0.008
30902W        W83798  26.579  10.332   8.571
30903W        W83799  21.317  12.206   0.217
30904W        W83800   3.660  18.925   1.621
30905W        W83801  20.071  18.055   3.176
30906W        W83802  29.048   4.583   8.434
30907W        W83803  28.351  18.320   8.244
30908W        W83804  12.511  13.197   9.840
30909W        W83805   4.013  28.210   7.626
30910W        W83806  31.340   9.340   9.580
30911W        W83807  15.769   6.436   8.858
30912W        W83808  18.407   3.285   3.665
30913W        W83809  29.816  12.568   0.287
30914W        W83810  25.522  11.437   0.898
30915W        W83811  12.996   7.208   0.621
30916W        W83812  34.425  25.061   7.796
30917W        W83813  26.863  18.179   2.812
30918W        W83814  23.136  15.679   2.038
30919W        W83815  30.883  30.050   2.292
30920W        W83816  15.867   7.623   1.284
30921W        W83817  10.913  20.328   0.577
30922W        W83818  26.887  10.692   7.767
30923W        W83819  25.833   8.551   9.559
30924W        W83820   2.499   6.757   2.435
30925W        W83821  34.770   4.537   3.046
30926W        W83822   8.992  17.156   2.901
30927W        W83823   2.577   0.980   1.169
30928W        W83824  19.378   2.199   9.602
30929W        W83825  22.218  25.297   3.377
30930W        W83826  28.552  27.770   1.385
30931W        W83827  29.679  24.679   8.661
30932W        W83828  35.218  28.634   1.822
30933W        W83829  14.354   1.174   2.251
30934W        W83830  12.973  34.876   9.486
30935W        W83831  11.827  31.984   1.434
30936W        W83832   2.409  12.266   1.704
30937W        W83833  20.512  26.562   9.826
30938W        W83834   6.017   3.814   9.438
30939W        W83835  15.120   1.199   1.536
30940W        W83836   3.878   0.370   8.764
30941W        W83837   8.982  23.704   1.509
30942W        W83838   4.329  27.914   0.928
30943W        W83839   3.916   1.369   0.811
30944W        W83840   4.584  19.881   8.797
30945W        W83841  19.666  25.485   9.880
30946W        W83842  28.862  20.581   9.223
30947W        W83843  32.553  10.520   3.569
30948W        W83844  31.175  11.995   1.375
30949W        W83845  18.886  13.844   0.271
30950W        W83846  27.108   0.718   7.964
30951W        W83847  11.347  17.441   0.255
30952W        W83848   1.233  35.233   0.532
30953W        W83849   2.764   4.846   9.504
30954W        W83850   5.541  34.989   8.430
30955W        W83851  31.095  13.111   1.279
30956W        W83852  12.509  20.276   1.232
30957W        W83853  26.638  28.174   1.261
30958W        W83854  17.852  10.905   0.520
30959W        W83855  33.170  10.391   9.429
30960W        W83856  11.107   0.969   6.767
30961W        W83857  21.808  34.286   8.161
30962W        W83858   7.140  31.371   9.535
30963W        W83859  12.019  25.965   1.923
30964W        W83860  16.893   8.142   9.814
30965W        W83861   7.148  13.185   1.466
30966W        W83862   5.993  10.471   0.926
30967W        W83863  35.736  15.861   0.345
30968W        W83864   5.848  34.844   2.202
30969W        W83865  17.779   0.353   2.349
30970W        W83866  20.318  32.693   8.201
30971W        W83867   5.114  12.963   0.895
30972W        W83868  29.161  10.886   8.252
30973W        W83869   5.910  11.301   2.207
30974W        W83870   3.839  30.216  10.012
30975W        W83871  14.358  20.054   2.717
30976W        W83872  32.160  11.087   7.626
30977W        W83873   2.321  16.140   9.531
30978W        W83874  29.439  28.045   2.607
30979W        W83875  11.349  20.831   1.550
30980W        W83876  11.340   5.498   9.361
30981W        W83877  28.254  15.786   7.967
30982W        W83878  11.451   7.104   0.931
30983W        W83879   4.725   1.008   2.351
30984W        W83880  18.339  28.284   2.588
30985W        W83881  19.572   6.015   1.023
30986W        W83882   2.255  32.896   3.299
30987W        W83883  18.106   3.357   3.228
30988W        W83884  29.818  33.169   1.326
30989W        W83885   6.723  23.011   1.047
30990W        W83886  28.260  10.894   2.381
30991W        W83887   9.434  21.337   9.479
30992W        W83888  18.447  26.040   2.385
30993W        W83889  33.949  24.059   9.497
30994W        W83890  13.057  22.971   3.536
30995W        W83891  26.857  35.303   8.714
30996W        W83892   6.302   0.274   7.721
30997W        W83893  14.827  20.645   1.853
30998W        W83894   3.317  21.432   0.423
30999W        W83895   9.260  22.150   7.835
31000W        W83896   1.908   9.372   1.280
31001W        W83897   5.962   7.751   8.554
31002W        W83898  27.798  15.456   7.940
31003W        W83899  34.975  17.150   8.319
31004W        W83900   4.414   8.157   1.348
31005W        W83901  11.151  29.172   1.432
31006W        W83902  23.326   6.573   9.169
31007W        W83903  22.857  32.802   8.568
31008W        W83904  11.616  23.096   8.331
31009W        W83905  22.142  15.636   8.777
31010W        W83906  26.088   0.277   9.827
31011W        W83907   6.745  11.445   0.881
31012W        W83908   0.008  19.865   8.743
31013W        W83909  11.237  30.930   2.680
31014W        W83910   2.592  12.902   8.943
31015W        W83911  25.993  10.859   0.503
31016W        W83912  27.678  32.168   2.693
31017W        W83913  10.757   2.741   9.779
31018W        W83914  21.975  15.635   8.167
31019W        W83915  16.204  13.548   0.955
31020W        W83916  29.449  27.283   9.271
31021W        W83917  23.136  31.352   8.374
31022W        W83918  20.048   1.469   0.557
31023W        W83919  24.417  13.742   9.651
31024W        W83920  33.865  13.319   8.746
31025W        W83921  11.819  33.072   1.384
31026W        W83922  13.440  19.133   0.205
31027W        W83923  17.127  20.021   9.959
31028W        W83924  34.419   3.640   7.344
31029W        W83925  15.222  15.471   9.700
31030W        W83926  31.922   5.867   1.796
31031W        W83927   3.097  14.193   0.460
31032W        W83928  24.774   7.511   9.044
31033W        W83929  13.845  30.209   2.107
31034W        W83930   3.009  15.344   3.980
31035W        W83931   0.613  15.792   2.718
31036W        W83932   6.111  19.593   9.237
31037W        W83933  14.652  24.888   9.341
31038W        W83934  29.971   3.676   9.191
31039W        W83935  31.153  20.550   1.527
31040W        W83936  21.968  34.584   2.538
31041W        W83937   2.590  30.540   9.276
31042W        W83938  30.015  11.579   8.193
31043W        W83939   7.953  26.655   8.504
31044W        W83940   2.524   5.739   2.754
31045W        W83941  31.994  24.080   0.585
31046W        W83942  19.416   9.373   0.778
31047W        W83943  19.666  18.030   1.997
31048W        W83944   8.952  15.073   7.677
31049W        W83945  20.584  17.295   1.354
31050W        W83946  19.074   9.695   8.479
31051W        W83947  16.303  31.164   0.828
31052W        W83948   1.329  21.288   2.854
31053W        W83949  10.034  35.199   8.014
31054W        W83950  27.422  14.016   8.832
31055W        W83951   2.061  21.285   1.988
31056W        W83952   1.255  19.645   0.352
31057W        W83953  19.103   2.581   1.623
31058W        W83954  16.021  32.139   9.272
31059W        W83955   9.749  26.832   9.087
31060W        W83956   4.909  15.002   0.177
31061W        W83957  18.613  15.844   2.841
31062W        W83958  10.645   8.206   0.922
31063W        W83959  21.607  15.414   0.999
31064W        W83960  25.600  17.732   1.061
31065W        W83961  32.571  19.287   8.906
31066W        W83962   8.139  25.636   7.279
31067W        W83963   2.746  22.462   2.023
31068W        W83964  29.811   6.544   9.849
31069W        W83965  19.851   9.097   9.401
31070W        W83966  32.364   9.737  10.214
31071W        W83967  18.807  36.002   2.864
31072W        W83968  17.901  23.102   1.437
31073W        W83969  20.201   1.559   9.859
31074W        W83970  27.779  29.056   8.596
31075W        W83971  21.434  23.722   1.288
31076W        W83972  19.307   1.370   7.870
31077W        W83973  21.625   2.597   7.663
31078W        W83974  26.557   2.456   9.823
31079W        W83975  23.665  30.640   1.087
31080W        W83976  29.079  32.737   0.683
31081W        W83977  33.701   6.649   1.918
31082W        W83978   8.998   9.777   0.289
31083W        W83979  19.153  20.865   2.181
31084W        W83980  24.429  22.340  10.270
31085W        W83981   1.963  16.223   0.428
31086W        W83982  13.850  23.812   0.372
31087W        W83983  13.395  28.413   2.425
31088W        W83984  33.192  31.141   2.513
31089W        W83985   9.488  15.330   1.675
31090W        W83986   7.678   9.849  10.228
31091W        W83987  24.893   3.288   8.044
31092W        W83988  24.416  21.036   7.297
31093W        W83989  15.685  13.408   8.784
31094W        W83990  29.335  21.474   0.904
31095W        W83991  26.699   5.326   9.891
31096W        W83992   0.466  15.325  10.301
31097W        W83993  34.212  13.587   8.456
31098W        W83994   8.726   2.819   9.804
31099W        W83995   7.490   4.244  10.110
31100W        W83996   6.235  24.353   2.679
31101W        W83997  15.250   3.163   9.315
31102W        W83998   4.054  17.451   1.868
31103W        W83999  22.546  14.631   9.490
31104W        W84000   5.927  10.081   8.903
31105W        W84001  27.776  10.760   2.016
31106W        W84002  18.513  19.910   8.632
31107W        W84003  11.839  34.132   9.697
31108W        W84004  21.808  20.837   9.468
31109W        W84005   4.284  24.504   7.796
31110W        W84006  24.631  12.700   1.399
31111W        W84007   8.598  16.020   1.774
31112W        W84008   9.064  23.038  10.028
31113W        W84009  24.422   2.085  10.180
31114W        W84010   2.506  29.688   9.993
31115W        W84011  24.640  29.200   9.141
31116W        W84012  15.448  33.092   9.881
31117W        W84013  25.585   2.308   7.908
31118W        W84014  15.166  25.556   0.731
31119W        W84015  28.673  34.135   0.561
31120W        W84016  24.534  10.828   7.583
31121W        W84017  25.231   0.540  10.011
31122W        W84018  32.231   1.268   0.588
31123W        W84019   0.540   7.546   2.117
31124W        W84020   1.483  18.314   8.944
31125W        W84021  17.873  15.207   1.997
31126W        W84022  34.343  24.663   0.252
31127W        W84023   6.355  20.174   0.948
31128W        W84024  31.701  13.512   9.026
31129W        W84025  17.952   5.572   1.890
31130W        W84026  19.099  34.305   3.176
31131W        W84027  11.650   6.512   9.189
31132W        W84028  20.218  23.917   0.306
31133W        W84029  32.573  19.103   2.161
31134W        W84030   1.685   9.646   9.749
31135W        W84031   6.912  35.662   0.119
31136W        W84032   3.011   1.797   8.227
31137W        W84033  26.927  13.918   2.194
31138W        W84034   8.759   8.462   9.236
31139W        W84035   5.272   5.561   0.345
31140W        W84036  17.457  35.368   0.346
31141W        W84037  16.400  35.414   1.413
31142W        W84038  22.152   0.539   2.729
31143W        W84039  15.436  29.194   2.150
31144W        W84040  31.790   6.257   1.425
31145W        W84041  24.504  27.439   8.685
31146W        W84042   6.338  18.051   8.948
31147W        W84043  22.200  31.296   0.638
31148W        W84044  30.893  25.522   9.190
31149W        W84045   5.584  21.509   9.765
31150W        W84046  30.888  23.801   0.684
31151W        W84047  16.686  19.513   9.380
31152W        W84048   6.036  29.286   9.508
31153W        W84049  18.107  31.744   7.513
31154W        W84050   8.348  28.290   8.276
31155W        W84051  28.740  19.643   0.234
31156W        W84052  23.452  26.694   8.219
31157W        W84053  25.325  28.926   1.455
31158W        W84054   1.470  11.787   3.592
31159W        W84055  16.579  33.551   0.260
31160W        W84056  13.010  22.102   2.337
31161W        W84057  10.038  31.777   0.024
31162W        W84058   4.445  14.626   2.373
31163W        W84059  14.204   0.249   2.666
31164W        W84060  10.932  10.219   8.141
31165W        W84061  17.101  35.801   9.620
31166W        W84062  14.324  28.184   2.117
31167W        W84063  18.892  17.598   2.428
31168W        W84064   8.782  11.450   1.975
31169W        W84065  16.159  16.408   9.852
31170W        W84066  34.941  31.618   3.076
31171W        W84067   6.598  29.671   1.950
31172W        W84068  35.494   3.000   8.461
31173W        W84069  23.283   7.505   9.107
31174W        W84070  35.955  13.487   3.254
31175W        W84071   0.360  32.684   2.279
31176W        W84072   6.874  35.381   0.942
31177W        W84073   1.188   6.449   1.825
31178W        W84074  35.256  16.780   9.460
31179W        W84075  15.073  18.434   3.004
31180W        W84076  29.404   0.557   1.499
31181W        W84077   3.516  35.225   9.431
31182W        W84078  12.987   4.541  10.315
31183W        W84079  11.764  10.427   3.305
31184W        W84080  26.204  20.281   8.951
31185W        W84081  15.820  19.411   3.744
31186W        W84082  22.665  30.413   0.397
31187W        W84083  22.605   2.722   2.287
31188W        W84084   6.365  30.367   8.942
31189W        W84085  29.714   1.381   2.823
31190W        W84086  23.845  10.893   8.761
31191W        W84087  32.931  24.123   8.600
31192W        W84088   9.456  33.221   2.393
31193W        W84089  30.805  23.723   2.776
31194W        W84090   7.116  35.272   0.461
31195W        W84091   2.113  16.062   9.035
31196W        W84092  23.722  35.948   1.904
31197W        W84093  14.729   9.746   9.262
31198W        W84094  13.181  31.520   0.811
31199W        W84095   6.425  22.221   2.719
31200W        W84096  26.270   2.455  10.252
31201W        W84097  22.082  25.420   8.171
31202W        W84098  16.680   7.292   9.443
31203W        W84099   3.651  30.458   2.363
31204W        W84100  12.688   4.389   8.158
31205W        W84101  22.955   1.617   2.166
31206W        W84102  17.513   4.683   2.912
31207W        W84103   5.406  22.258  10.141
31208W        W84104  21.811  23.752   0.937
31209W        W84105  29.986  32.217  10.182
31210W        W84106  12.306  21.610   8.765
31211W        W84107  24.694  12.720   0.909
31212W        W84108   5.674  15.036   3.009
31213W        W84109  14.058  21.361   9.273
31214W        W84110   5.571  22.773   8.871
31215W        W84111  25.137  17.607   9.060
31216W        W84112  22.259   1.181   0.632
31217W        W84113  30.703  30.266   0.640
31218W        W84114   7.527  17.217   1.514
31219W        W84115  29.354   1.710   2.490
31220W        W84116   0.889   8.098   9.884
31221W        W84117  25.286  35.649   2.403
31222W        W84118  30.703  19.220   8.095
31223W        W84119   3.858  29.778   2.737
31224W        W84120   3.345   8.605   8.855
31225W        W84121  15.234  17.522   0.641
31226W        W84122   4.232  17.568   9.241
31227W        W84123  19.784  35.685   3.023
31228W        W84124  27.022  19.715   9.077
31229W        W84125   9.262  19.852   0.354
31230W        W84126  15.686  11.444  10.273
31231W        W84127  19.654  19.739   2.266
31232W        W84128  29.214  28.654   1.891
31233W        W84129  34.304   5.171  10.139
31234W        W84130  10.769  15.563   8.403
31235W        W84131  23.807   8.159   3.293
31236W        W84132   4.077  11.969   8.287
31237W        W84133  17.944   2.498   0.105
31238W        W84134  15.920  27.386   1.053
31239W        W84135  20.240  27.224   9.824
31240W        W84136  32.312  16.374   3.515
31241W        W84137  12.514  12.638   2.383
31242W        W84138  23.242  33.270   0.050
31243W        W84139  27.375  32.412   1.342
31244W        W84140   7.329  28.010   0.614
31245W        W84141  32.702  13.322   8.795
31246W        W84142  10.990   4.102   7.543
31247W        W84143  11.155  31.859   7.352
31248W        W84144  21.223  23.423   9.028
31249W        W84145  25.288   7.504   2.141
31250W        W84146  13.486   0.721   2.155
31251W        W84147   8.877  24.227   2.724
31252W        W84148  31.846  21.149   8.300
31253W        W84149   0.905  17.723   8.412
31254W        W84150   5.426  18.568   3.090
31255W        W84151   8.143   6.580   9.093
31256W        W84152  11.071   8.405   8.888
31257W        W84153  30.559  15.259   7.711
31258W        W84154   5.740  13.408   0.248
31259W        W84155  31.166  23.489   3.134
31260W        W84156   0.211   2.908   8.375
31261W        W84157   4.554  28.928   1.781
31262W        W84158  19.856  35.446  10.084
31263W        W84159  30.871  24.495   1.354
31264W        W84160  17.994   1.489   0.986
31265W        W84161  34.852  12.905   0.092
31266W        W84162  30.597  15.403   9.144
31267W        W84163   3.877  14.684   8.856
31268W        W84164  32.298  35.349   9.919
31269W        W84165  18.933  25.037   3.485
31270W        W84166  14.465   8.887   8.358
31271W        W84167   1.874   3.773   9.565
31272W        W84168  23.191  14.112   0.282
31273W        W84169  20.645  23.916   8.560
31274W        W84170  33.767  25.667   1.538
31275W        W84171   5.340  33.178   3.259
31276W        W84172  15.569  26.186   2.663
31277W        W84173  27.218  26.534  10.046
31278W        W84174  20.081  13.845   0.290
31279W        W84175  20.054  18.755   2.033
31280W        W84176  30.642   3.449   9.744
31281W        W84177  31.277  21.488   7.708
31282W        W84178  31.303  28.784   9.203
31283W        W84179  25.993  19.511   8.999
31284W        W84180  20.106   7.729   2.383
31285W        W84181  12.303  35.272  10.306
31286W        W84182  25.249  12.369   7.818
31287W        W84183  27.289  30.927   7.193
31288W        W84184  30.099   0.541   0.569
31289W        W84185  15.161  24.838   7.217
31290W        W84186  31.281  17.122   9.556
31291W        W84187  34.822  29.783   9.805
31292W        W84188   6.243   2.312   0.880
31293W        W84189  11.768  14.173   7.590
31294W        W84190  24.750  12.491   3.744
31295W        W84191  23.621  18.175   3.857
31296W        W84192  35.783  17.443   9.055
31297W        W84193  14.668   8.778   0.424
31298W        W84194  21.661  32.343   9.709
31299W        W84195  24.694   5.695  10.187
31300W        W84196   8.130  35.596   1.550
31301W        W84197  18.397  26.607   2.471
31302W        W84198  17.618  19.477   8.991
31303W        W84199  23.761  23.711   0.261
31304W        W84200  10.232  21.694   7.668
31305W        W84201  15.484  30.418  10.254
31306W        W84202  16.636   0.919   0.649
31307W        W84203  35.672  31.522   0.495
31308W        W84204   6.845   7.681   8.869
31309W        W84205   2.693  14.101   0.862
31310W        W84206  24.072  17.761   0.187
31311W        W84207   4.714  32.605   7.781
31312W        W84208  35.118  16.723   1.434
31313W        W84209   9.644  36.014   2.363
31314W        W84210  29.047  32.282   7.055
31315W        W84211  12.209  11.539   2.459
31316W        W84212  10.959  11.581   9.484
31317W        W84213  30.083  31.770   9.928
31318W        W84214  36.003   1.262   2.868
31319W        W84215   3.597  18.398   8.392
31320W        W84216  26.140   6.928   9.129
31321W        W84217  25.622  34.021   0.801
31322W        W84218   8.627   8.654  10.151
31323W        W84219   8.213  13.775   0.564
31324W        W84220  29.083  15.787   8.578
31325W        W84221   5.634  19.246   0.552
31326W        W84222  11.037  27.940   9.195
31327W        W84223  13.516  35.594   1.665
31328W        W84224  15.480  27.746   7.514
31329W        W84225   8.091   8.290   8.093
31330W        W84226  35.433   7.400   9.481
31331W        W84227  19.801  33.433   2.664
31332W        W84228   4.695   7.684   0.430
31333W        W84229   5.562  18.697   7.785
31334W        W84230  30.359  32.328   7.758
31335W        W84231  17.180   9.291   2.910
31336W        W84232  13.102   2.023   1.378
31337W        W84233  12.922  30.083   9.221
31338W        W84234  24.287   0.333   9.266
31339W        W84235  34.357  19.214   2.059
31340W        W84236   4.534  18.635   1.877
31341W        W84237  10.223   8.455   0.713
31342W        W84238  14.324  28.801   1.949
31343W        W84239  28.702  25.690   9.242
31344W        W84240  17.994   8.051   0.635
31345W        W84241  25.628   0.126  10.042
31346W        W84242  17.524  14.138   0.299
31347W        W84243   8.551   2.592   0.555
31348W        W84244  28.944   2.109   9.919
31349W        W84245   0.672  19.483   1.668
31350W        W84246   7.758   1.119   1.716
31351W        W84247  26.261   2.857   0.998
31352W        W84248   6.094  15.978   8.251
31353W        W84249  31.884  29.087   1.942
31354W        W84250  20.024  17.282   8.019
31355W        W84251  13.955   7.949   2.432
31356W        W84252  20.845  16.343  10.275
31357W        W84253   6.282  12.849   8.567
31358W        W84254  20.636  10.139   1.670
31359W        W84255   3.889  24.245   2.149
31360W        W84256  17.913  11.619   8.128
31361W        W84257  26.447   3.457   9.222
31362W        W84258  34.762  22.410   9.472
31363W        W84259   3.761  14.997   0.438
31364W        W84260  13.748   4.910   1.578
31365W        W84261   6.461  35.953   9.284
31366W        W84262  23.339  20.460   0.553
31367W        W84263   5.607  31.509   0.007
31368W        W84264  22.174   6.342   3.499
31369W        W84265  14.452  21.044   8.443
31370W        W84266  34.300  32.962   3.245
31371W        W84267   2.803   0.285   9.506
31372W        W84268   4.952   2.142   7.962
31373W        W84269  18.918  11.220   8.152
31374W        W84270   9.263   7.640   7.911
31375W        W84271   4.682   0.601   0.390
31376W        W84272  17.388  27.261   2.652
31377W        W84273  23.634   2.271   0.478
31378W        W84274  20.242  30.736   8.339
31379W        W84275  27.564  17.587   1.218
31380W        W84276  11.999  14.712   8.706
31381W        W84277   7.661  32.327   9.112
31382W        W84278  26.895  33.513   0.992
31383W        W84279   9.268  14.183   3.667
31384W        W84280   6.065  12.932   0.919
31385W        W84281  12.847  31.180   8.830
31386W        W84282  26.293   2.263   0.354
31387W        W84283   8.841  19.468   1.373
31388W        W84284  25.734  14.318   8.678
31389W        W84285  31.145  12.741   8.449
31390W        W84286  27.163  21.786   9.280
31391W        W84287  13.475  35.873   8.586
31392W        W84288  32.897   8.484   7.841
31393W        W84289  15.098  17.492   0.142
31394W        W84290  15.888  18.293   0.772
31395W        W84291  10.948   4.259   7.985
31396W        W84292  12.011   5.952   8.668
31397W        W84293  11.288  29.361   7.711
31398W        W84294  11.632  32.560   7.765
31399W        W84295   7.788  22.588   2.409
31400W        W84296  22.488  14.056   0.227
31401W        W84297   7.364   0.659   9.074
31402W        W84298  10.797  25.648   7.112
31403W        W84299  18.789  12.306   9.501
31404W        W84300   2.922  15.596  10.219
31405W        W84301  25.593  25.969   3.657
31406W        W84302  26.376   7.349   8.381
31407W        W84303  15.673  19.614   2.055
31408W        W84304  20.224  19.478   9.428
31409W        W84305   2.807  18.030   8.109
31410W        W84306   5.681  23.369   3.291
31411W        W84307   8.657  35.759   1.184
31412W        W84308   9.054  34.632   1.210
31413W        W84309  12.852  10.351   8.145
31414W        W84310   5.093  13.845   1.255
31415W        W84311  17.980   2.857   1.938
31416W        W84312   8.946  28.157   0.649
31417W        W84313  33.022   3.064   9.044
31418W        W84314   9.140  33.148   1.504
31419W        W84315  14.947  30.699   3.073
31420W        W84316  28.231  12.206   9.693
31421W        W84317  22.001  23.434   9.475
31422W        W84318  28.383   2.303   1.397
31423W        W84319  23.291   7.881   1.648
31424W        W84320  12.123  32.364   1.246
31425W        W84321  31.594  32.449   0.568
31426W        W84322  28.967   9.916   8.411
31427W        W84323   2.743   2.278   0.079
31428W        W84324  31.006   8.126   7.942
31429W        W84325  23.106  25.051   0.723
31430W        W84326   7.717  20.369   7.468
31431W        W84327  35.886  17.841   2.753
31432W        W84328   7.654  29.893   6.970
31433W        W84329  33.340  21.632   0.143
31434W        W84330   3.571  11.657   0.333
31435W        W84331  19.762  21.065   1.091
31436W        W84332   4.484  20.585   7.306
31437W        W84333   1.728   3.212   7.885
31438W        W84334  24.324  10.698   8.007
31439W        W84335  20.011  26.917   2.047
31440W        W84336  28.436   9.241   7.632
31441W        W84337  23.091   9.148   9.973
31442W        W84338  29.476   8.846   1.395
31443W        W84339  12.037  17.656  10.234
31444W        W84340  29.262   7.548   1.439
31445W        W84341  13.148  28.766   2.658
31446W        W84342  20.399  13.118   9.927
31447W        W84343  17.027  34.364  10.292
31448W        W84344  32.253   0.644   9.285
31449W        W84345  10.131  20.945   0.422
31450W        W84346  31.052  22.905   2.268
31451W        W84347  35.106  35.762   1.803
31452W        W84348  20.908  31.982   0.285
31453W        W84349   7.828  24.410   0.075
31454W        W84350  28.397  12.819   8.711
31455W        W84351  31.190  31.011   3.902
31456W        W84352  34.921  34.318   0.137
31457W        W84353  18.857   6.011   3.164
31458W        W84354  20.757  15.072   0.996
31459W        W84355   8.085  17.392   2.724
31460W        W84356   1.535  15.715   1.147
31461W        W84357   3.987   4.745   9.025
31462W        W84358  21.120  16.617   8.080
31463W        W84359  25.604  24.746   7.231
31464W        W84360  26.547  34.048   1.755
31465W        W84361  26.194  27.612   8.306
31466W        W84362  17.518   9.401  10.020
31467W        W84363  15.122   3.984   9.290
31468W        W84364  21.249   2.350   7.017
31469W        W84365   7.197  14.528  10.075
31470W        W84366  24.613   5.677   1.928
31471W        W84367  35.921  16.205   1.412
31472W        W84368   3.699  17.049   7.956
31473W        W84369   1.730   2.654   1.460
31474W        W84370   7.605  26.681   3.010
31475W        W84371  31.573  14.350   9.310
31476W        W84372  21.311   1.117   2.379
31477W        W84373   3.018  27.305   1.899
31478W        W84374  24.850  32.912   9.726
31479W        W84375  21.193   4.560   8.482
31480W        W84376  14.542   2.076   1.299
31481W        W84377  22.530  22.988   7.316
31482W        W84378  24.219  29.726   9.877
31483W        W84379  23.348  15.275   1.869
31484W        W84380   3.943  14.714   1.834
31485W        W84381   4.966   0.619   1.043
31486W        W84382  34.206  12.890   2.512
31487W        W84383   6.738  24.464   8.874
31488W        W84384  27.238   5.826   2.852
31489W        W84385   6.816  29.796   9.547
31490W        W84386  22.357   8.509   9.789
31491W        W84387   5.944   4.241   1.141
31492W        W84388  15.239  24.017   8.582
31493W        W84389  24.025  18.554   1.368
31494W        W84390   2.055  25.198   3.306
31495W        W84391  15.458   8.537   9.130
31496W        W84392  25.995   4.695   1.955
31497W        W84393  12.603   5.377   0.650
31498W        W84394  16.031   1.705   2.663
31499W        W84395  28.994   0.840   3.190
31500W        W84396  31.799  26.572   0.944
31501W        W84397  35.942   4.073   8.478
31502W        W84398  28.791  32.993   1.133
31503W        W84399  16.360  22.195   8.690
31504W        W84400  31.902  24.800   0.927
31505W        W84401  24.481  16.768   2.132
31506W        W84402   5.604  18.160   0.138
31507W        W84403  31.913  21.994   1.498
31508W        W84404  22.640  22.586   8.958
31509W        W84405  17.041  23.177   3.049
31510W        W84406  20.847  19.075   2.600
31511W        W84407  19.882  33.149   9.861
31512W        W84408  30.161   1.948  10.264
31513W        W84409  12.880   6.328   0.584
31514W        W84410   7.720  28.683   1.940
31515W        W84411  35.636  22.943   8.039
31516W        W84412  17.985  22.516   0.358
31517W        W84413   8.357  27.047   1.864
31518W        W84414   8.845   3.945   0.795
31519W        W84415  15.354  18.426   0.861
31520W        W84416  13.888   2.815   1.361
31521W        W84417  13.159  25.590   9.394
31522W        W84418   4.643  28.769   2.208
31523W        W84419  31.457   0.112   2.289
31524W        W84420   6.022  29.813   8.797
31525W        W84421  30.574   9.952   9.309
31526W        W84422  31.200  22.614  10.322
31527W        W84423  11.278  25.752  10.185
31528W        W84424   7.797  33.675   1.721
31529W        W84425  30.532  16.093   9.685
31530W        W84426   6.221  16.774   2.145
31531W        W84427  11.659  10.229   8.511
31532W        W84428  29.832  13.845   2.644
31533W        W84429   5.643  21.788   2.274
31534W        W84430  29.278  26.934   2.265
31535W        W84431   3.932  14.096  10.076
31536W        W84432  32.934  30.530   2.477
31537W        W84433  29.172  35.779   2.377
31538W        W84434   6.215  29.432   1.588
31539W        W84435   1.677  15.246   2.568
31540W        W84436   7.620   2.055   2.327
31541W        W84437  29.728  19.114   0.422
31542W        W84438  20.496  32.274   1.202
31543W        W84439  21.803  35.472   9.834
31544W        W84440  26.999   4.623   2.365
31545W        W84441  25.296  20.834   9.773
31546W        W84442   9.967  21.443   0.387
31547W        W84443   6.673  17.625   3.041
31548W        W84444  12.385  27.241   0.808
31549W        W84445  24.418   0.916   3.240
31550W        W84446  29.978  24.765   0.946
31551W        W84447  31.979   9.000   1.283
31552W        W84448  15.674  25.056   9.197
31553W        W84449  16.039  28.129   7.667
31554W        W84450   4.691  12.286   8.639
31555W        W84451  20.323  26.019   8.567
31556W        W84452  23.067  32.211   0.899
31557W        W84453   5.853  35.606   2.208
31558W        W84454  22.828  20.196   2.047
31559W        W84455  30.361   9.924   8.022
31560W        W84456  20.855  34.697   1.900
31561W        W84457  30.301  22.867   8.791
31562W        W84458  19.783  25.982   7.500
31563W        W84459  27.785   4.457   0.346
31564W        W84460   0.450   2.271   1.837
31565W        W84461   0.016  25.404   9.898
31566W        W84462   4.275  30.505   8.735
31567W        W84463  24.669  19.236   1.228
31568W        W84464  10.385  21.601   6.507
31569W        W84465  32.794  31.851   2.879
31570W        W84466   0.526  19.988   1.761
31571W        W84467  32.796  23.304   2.336
31572W        W84468  27.244   2.806   7.630
31573W        W84469  34.626  17.211   0.171
31574W        W84470  28.332  33.522   6.575
31575W        W84471   1.606   4.619   1.111
31576W        W84472  22.491   6.793   8.370
31577W        W84473  34.071  10.294   9.356
31578W        W84474  35.142  13.470   8.198
31579W        W84475   5.716   0.657   0.684
31580W        W84476  13.293  10.145   7.614
31581W        W84477  14.679  31.723   1.210
31582W        W84478   7.971  29.628   2.064
31583W        W84479  20.114   7.752   1.409
31584W        W84480  20.514  28.387   3.841
31585W        W84481  16.611  32.362   1.991
31586W        W84482  11.547  13.043   9.632
31587W        W84483  21.094  20.938   8.299
31588W        W84484  15.738  24.733   8.479
31589W        W84485   5.489  11.085   1.541
31590W        W84486  17.854  12.386   0.599
31591W        W84487  31.262  30.486   3.163
31592W        W84488  33.522  33.791   2.940
31593W        W84489  33.161  11.846   3.105
31594W        W84490  17.426  12.425   9.844
31595W        W84491   4.626   6.550   9.604
31596W        W84492  27.652   8.142   0.365
31597W        W84493  32.640  11.266   8.883
31598W        W84494  34.458   9.862   9.723
31599W        W84495   9.051  23.810   2.996
31600W        W84496   4.743  26.657   0.344
31601W        W84497  24.417  29.893   0.504
31602W        W84498  20.750  29.735   8.707
31603W        W84499  24.543   8.943   2.896
31604W        W84500  21.934  32.555   0.306
31605W        W84501  18.295  33.016   8.181
31606W        W84502   7.761  19.418   8.557
31607W        W84503  20.179   4.994   8.470
31608W        W84504   0.571   6.425   8.946
31609W        W84505  23.680  15.602   1.539
31610W        W84506  30.084  31.176   2.030
31611W        W84507  26.728  35.391   9.653
31612W        W84508  20.725  21.112   2.356
31613W        W84509  16.904   1.944   0.005
31614W        W84510  19.494  13.487   3.161
31615W        W84511   7.161   0.921   2.079
31616W        W84512  28.052  31.514   7.504
31617W        W84513   3.144  16.375   0.477
31618W        W84514  33.266  16.404   3.270
31619W        W84515  25.119  31.015   7.559
31620W        W84516  23.879  13.026   2.616
31621W        W84517  21.810  34.170   9.190
31622W        W84518   3.292  34.449   7.168
31623W        W84519  18.567  28.066   9.906
31624W        W84520  14.309  19.198   2.769
31625W        W84521  27.165  18.405   1.917
31626W        W84522   7.915   4.392   7.430
31627W        W84523  31.326  12.419   2.038
31628W        W84524  10.564  14.670  10.058
31629W        W84525  18.843  18.187   1.728
31630W        W84526  29.667  31.111   2.301
31631W        W84527  26.364   8.612   8.692
31632W        W84528  28.010   9.848   8.016
31633W        W84529  25.147  32.298  10.257
31634W        W84530  18.685  29.680   2.058
31635W        W84531   3.689  28.402   2.028
31636W        W84532  25.480  11.417   9.335
31637W        W84533  32.848  35.180   8.596
31638W        W84534   1.978  28.227   8.992
31639W        W84535  13.547  28.401   1.005
31640W        W84536  35.214   4.140   1.357
31641W        W84537  11.942  31.480   2.913
31642W        W84538  34.709   5.944   0.103
31643W        W84539  19.758   2.102   7.356
31644W        W84540  23.570  31.186   9.210
31645W        W84541  14.136  34.650   1.814
31646W        W84542  35.224  29.238   1.826
31647W        W84543   1.004   2.883   0.619
31648W        W84544   2.716   6.723   8.396
31649W        W84545  13.253  10.957   8.142
31650W        W84546  18.971   3.395   2.454
31651W        W84547  26.743  21.883   3.436
31652W        W84548   7.098  28.449   8.497
31653W        W84549  30.426   1.956   7.619
31654W        W84550  10.962   9.372   7.381
31655W        W84551   6.550  10.326   1.816
31656W        W84552  10.124  21.501   1.050
31657W        W84553  19.202  21.226   0.024
31658W        W84554  21.683   5.905   0.107
31659W        W84555   9.216  13.843   2.145
31660W        W84556  28.893   3.002   9.946
31661W        W84557  26.256   1.677   1.692
31662W        W84558  26.643  28.188   7.179
31663W        W84559  30.734  26.983   9.401
31664W        W84560  18.264  24.947   3.069
31665W        W84561  33.730  16.632   4.014
31666W        W84562  35.935   6.920   1.836
31667W        W84563  15.230   3.536   9.027
31668W        W84564  31.329   6.651   9.990
31669W        W84565  17.233  31.972   7.645
31670W        W84566  18.927  35.306   2.195
31671W        W84567  26.277   8.974   2.628
31672W        W84568  31.394  26.955   1.804
31673W        W84569   3.218  24.936   9.023
31674W        W84570  31.502  22.844   2.032
31675W        W84571  16.913   9.491  10.198
31676W        W84572  32.334   9.365   1.297
31677W        W84573  33.007  28.580   0.660
31678W        W84574   1.685  22.406   9.436
31679W        W84575   9.964  12.213   8.933
31680W        W84576   9.191  24.252   2.209
31681W        W84577   9.187  33.541   0.393
31682W        W84578  15.010  21.132   1.180
31683W        W84579   9.775  32.271   1.426
31684W        W84580  24.021  26.691   0.582
31685W        W84581  13.910   3.850   2.544
31686W        W84582   1.997  23.664   9.800
31687W        W84583  12.013  14.307   1.054
31688W        W84584  18.694  30.076   2.724
31689W        W84585   2.098  35.988   3.651
31690W        W84586  32.529  33.764   7.623
31691W        W84587   2.381  22.120   0.917
31692W        W84588  17.065  26.100   1.270
31693W        W84589   4.966  24.304   8.258
31694W        W84590  21.532  34.657   0.207
31695W        W84591  33.436  29.025   1.684
31696W        W84592  23.445   3.223   7.955
31697W        W84593  13.803   4.897   7.638
31698W        W84594  30.835  14.922   0.845
31699W        W84595  33.365   9.986   2.582
31700W        W84596  19.931  32.709   8.887
31701W        W84597   4.743  21.153   7.988
31702W        W84598   0.404  26.611   1.685
31703W        W84599  25.294  24.940   0.026
31704W        W84600  10.019  24.992   9.158
31705W        W84601  13.672  23.739   7.603
31706W        W84602  32.452  28.017   9.166
31707W        W84603   7.742  23.519   7.349
31708W        W84604  15.890  29.008   2.187
31709W        W84605   0.678  33.601   0.193
31710W        W84606  19.498  12.588   8.184
31711W        W84607  26.120   3.678   8.805
31712W        W84608  24.875  16.596   8.746
31713W        W84609   9.721  17.557   8.261
31714W        W84610   5.036  12.233   3.554
31715W        W84611  23.894  29.031   8.069
31716W        W84612  11.652  23.861   9.454
31717W        W84613   1.773   4.301   1.892
31718W        W84614   2.845   7.130   7.518
31719W        W84615   1.510   9.236  10.036
31720W        W84616   1.730  15.057   3.394
31721W        W84617  28.438  22.610   7.178
31722W        W84618   2.862  30.308   3.602
31723W        W84619   1.557  22.435   8.911
31724W        W84620   2.829   5.348   3.507
31725W        W84621  22.691   0.570   1.015
31726W        W84622  24.264  23.280   8.678
31727W        W84623  35.130   1.438   0.938
31728W        W84624   1.477   0.894   0.085
31729W        W84625  12.903  29.195   1.930
31730W        W84626  23.176  12.730   9.868
31731W        W84627  15.578  32.279   3.353
31732W        W84628   3.583  23.653   0.227
31733W        W84629   4.163  30.087   1.846
31734W        W84630  11.428   7.953   2.632
31735W        W84631  29.840  20.933   7.286
31736W        W84632  18.134  35.105   2.300
31737W        W84633  29.937  30.813  10.073
31738W        W84634  28.605  24.286   8.972
31739W        W84635  22.661   6.312   8.597
31740W        W84636  28.133  31.304   1.191
31741W        W84637   0.896  18.952   1.387
31742W        W84638   9.293  23.807   2.069
31743W        W84639  11.693   8.685   1.131
31744W        W84640  11.289  13.346   2.904
31745W        W84641  18.768  18.310   8.595
31746W        W84642  14.429  18.305   3.650
31747W        W84643  15.491  26.974   9.695
31748W        W84644   7.537   3.507   0.443
31749W        W84645  29.526  19.004   3.134
31750W        W84646  11.974  34.725   8.384
31751W        W84647  10.821  11.807   9.946
31752W        W84648  27.679   4.999   9.980
31753W        W84649  30.050  22.114   8.195
31754W        W84650  24.223  31.991   1.378
31755W        W84651  25.634  26.586   2.644
31756W        W84652  31.874  21.923   0.575
31757W        W84653   5.359  34.745   8.044
31758W        W84654  14.909  10.575   8.897
31759W        W84655  10.056  22.242   8.885
31760W        W84656  11.859   2.026   1.959
31761W        W84657  18.593  16.663   7.664
31762W        W84658   4.242   4.810   9.703
31763W        W84659  34.792  23.172   2.167
31764W        W84660  16.720  18.037   0.724
31765W        W84661  22.965  10.221   1.754
31766W        W84662   8.655   8.731   8.476
31767W        W84663   6.282  26.723   7.537
31768W        W84664  15.610  29.190   1.371
31769W        W84665  30.442   8.125   2.067
31770W        W84666   4.681   1.447   1.546
31771W        W84667   1.041  12.886   9.943
31772W        W84668  13.417   5.791   1.754
31773W        W84669  29.905  21.556   2.150
31774W        W84670  33.736  21.756   9.093
31775W        W84671  24.013  33.187  10.260
31776W        W84672   1.080  20.145   8.656
31777W        W84673   4.799  14.034   2.753
31778W        W84674   5.150   6.862   3.310
31779W        W84675  19.140  28.890   1.415
31780W        W84676  14.558   6.735  10.210
31781W        W84677  13.246  10.539   0.212
31782W        W84678  27.223  25.601   7.884
31783W        W84679   8.123  33.319   7.312
31784W        W84680  12.683  22.403   8.311
31785W        W84681  16.124   7.331   8.910
31786W        W84682  10.776  33.359   2.318
31787W        W84683  21.626  29.964   0.017
31788W        W84684  18.330   1.555   9.885
31789W        W84685  25.506  10.848  10.169
31790W        W84686  16.142   1.563   2.056
31791W        W84687   2.480  29.555   3.341
31792W        W84688  25.349  25.887   2.207
31793W        W84689  32.925  13.630   3.791
31794W        W84690   8.013  19.043   3.083
31795W        W84691  23.685  23.783   9.676
31796W        W84692  16.135  19.752   2.329
31797W        W84693  16.912  25.950   2.728
31798W        W84694  17.194   0.036   0.254
31799W        W84695   2.696  15.882   1.904
31800W        W84696   0.964  18.300   2.048
31801W        W84697  19.263  21.855   1.052
31802W        W84698   6.970  26.659   8.249
31803W        W84699  16.507  35.429   0.956
31804W        W84700  33.611  15.843   0.137
31805W        W84701  25.405  19.267   2.138
31806W        W84702  24.961  16.642   1.409
31807W        W84703  17.405   1.730   0.400
31808W        W84704  26.520  35.504   9.107
31809W        W84705  31.011  25.511  10.043
31810W        W84706   3.373  31.797   9.499
31811W        W84707  18.906  24.726   7.573
31812W        W84708   2.259  34.689   2.914
31813W        W84709   6.817  21.534   1.107
31814W        W84710   3.135  13.232   2.079
31815W        W84711  35.121   5.162   8.994
31816W        W84712  33.240  30.873   1.804
31817W        W84713  17.781  14.739   2.118
31818W        W84714  20.079  23.278   4.116
31819W        W84715  35.233  31.189   0.312
31820W        W84716  34.526  32.566   3.514
31821W        W84717   6.708   4.975   1.716
31822W        W84718  30.645  16.091   2.443
31823W        W84719  10.522  12.759   0.973
31824W        W84720  11.492  20.155   2.242
31825W        W84721  28.205  16.195   1.987
31826W        W84722  22.023   7.584   8.001
31827W        W84723  32.032  10.072   3.183
31828W        W84724  22.242  32.447   1.342
31829W        W84725   0.081  27.303   8.609
31830W        W84726   7.840  15.710   0.312
31831W        W84727   8.090  33.984   0.386
31832W        W84728   3.000  30.251   2.437
31833W        W84729  32.882   1.213   8.758
31834W        W84730   6.884  27.733   1.170
31835W        W84731  11.773  16.453   2.725
31836W        W84732  24.345   7.534   3.414
31837W        W84733  17.885  13.548   8.610
31838W        W84734  25.509  17.174   0.110
31839W        W84735  29.783   2.428   9.867
31840W        W84736   0.840  28.161   1.999
31841W        W84737  17.793  26.482   1.073
31842W        W84738  29.946  12.086   9.606
31843W        W84739  18.451  29.103   7.951
31844W        W84740  12.430  15.704  10.057
31845W        W84741   8.624  34.985   7.957
31846W        W84742   4.580   1.960   9.376
31847W        W84743  23.968  29.391  10.247
31848W        W84744  20.055  11.330   9.415
31849W        W84745   1.625  24.187   1.244
31850W        W84746  11.903  33.843   0.161
31851W        W84747   6.966   1.665   9.437
31852W        W84748   6.648   4.229   9.476
31853W        W84749  30.794  27.963  10.021
31854W        W84750   2.658  25.710   8.350
31855W        W84751  14.231  16.095   3.432
31856W        W84752  19.699   7.250   9.184
31857W        W84753  14.073   1.225   2.730
31858W        W84754  35.261   3.270   7.500
31859W        W84755   2.407  34.755   1.776
31860W        W84756  10.037  19.916   7.141
31861W        W84757   2.760  27.348   3.321
31862W        W84758  14.384  22.342   8.331
31863W        W84759  10.400   6.682   7.671
31864W        W84760  10.027  19.964   7.725
31865W        W84761   6.182  31.488   0.099
31866W        W84762  32.748  33.561   8.633
31867W        W84763  12.341   1.949   9.731
31868W        W84764  30.265  35.029   0.163
31869W        W84765  30.413  11.814   0.716
31870W        W84766   0.439   0.758   0.252
31871W        W84767  18.703  11.764   7.668
31872W        W84768   0.224  12.769   9.050
31873W        W84769  29.932  15.989   8.152
31874W        W84770  14.468   2.696   0.167
31875W        W84771  25.638   9.592   9.753
31876W        W84772  15.671  23.809   8.307
31877W        W84773  17.060   9.529   1.383
31878W        W84774  18.647  31.437   1.137
31879W        W84775  30.234  15.698   9.487
31880W        W84776   3.170  27.235   1.380
31881W        W84777   2.802  33.790   7.739
31882W        W84778  13.449  15.035   0.311
31883W        W84779   7.848   3.668   0.772
31884W        W84780  23.156  27.482   8.308
31885W        W84781  13.847  11.163   8.843
31886W        W84782   9.008  11.400  10.329
31887W        W84783   7.177  20.533   2.053
31888W        W84784  21.909   9.220   1.293
31889W        W84785  29.634  19.394   8.751
31890W        W84786   4.655  27.385   8.942
31891W        W84787  31.928   0.319   8.206
31892W        W84788   5.314  33.981   1.106
31893W        W84789  10.450  25.651   1.981
31894W        W84790  12.053  18.620   8.029
31895W        W84791  24.413   3.244   8.201
31896W        W84792  12.844  32.442   2.764
31897W        W84793   4.261  13.123   3.863
31898W        W84794  31.772  20.038   0.297
31899W        W84795  28.691  19.349   9.811
31900W        W84796  26.175  34.053   2.072
31901W        W84797  17.621   3.969   9.614
31902W        W84798  19.336   7.497   8.572
31903W        W84799   2.107  10.181   8.357
31904W        W84800  17.813  16.588   8.996
31905W        W84801   8.271  10.672   1.321
31906W        W84802  10.895  30.597   9.133
31907W        W84803   4.890  12.510   9.239
31908W        W84804  14.027  25.370   1.455
31909W        W84805  17.202   4.303   8.393
31910W        W84806  12.565  21.213   2.554
31911W        W84807  28.836  34.541   7.980
31912W        W84808  35.696  13.163   3.518
31913W        W84809  11.149  17.745   8.037
31914W        W84810   3.102   5.860   3.745
31915W        W84811   8.627  24.577   6.960
31916W        W84812  11.167  27.602   9.661
31917W        W84813  14.579   9.406   8.120
31918W        W84814   2.659   6.671   7.466
31919W        W84815  22.922   2.684   9.373
31920W        W84816  12.180   4.057   2.406
31921W        W84817  27.878   1.274   9.218
31922W        W84818  16.116  28.463  10.164
31923W        W84819   5.168  20.717   8.927
31924W        W84820  33.587   4.681   2.233
31925W        W84821   5.557   6.171   9.716
31926W        W84822   6.622  11.746   8.745
31927W        W84823  11.779   9.372   8.122
31928W        W84824   7.848  33.034   0.974
31929W        W84825  19.814   4.196   7.571
31930W        W84826  33.282  33.260   9.360
31931W        W84827  25.436   3.998   8.459
31932W        W84828   2.885   0.606   9.188
31933W        W84829  18.519  34.738   8.729
31934W        W84830  16.648  20.096   3.504
31935W        W84831  16.388  25.292   2.888
31936W        W84832  19.109  25.366   9.026
31937W        W84833  16.814   2.087   3.168
31938W        W84834  17.375  10.489   8.713
31939W        W84835  23.751   2.579   0.087
31940W        W84836  31.660  29.909   3.894
31941W        W84837  18.235  26.101   3.328
31942W        W84838   4.995   5.103   0.411
31943W        W84839  28.848   1.031   2.338
31944W        W84840  19.578   8.530   3.937
31945W        W84841   3.529  26.884   8.681
31946W        W84842   1.214  19.428   7.951
31947W        W84843  24.546  23.324   0.033
31948W        W84844  23.643   9.099   1.336
31949W        W84845  23.376  23.823   9.216
31950W        W84846   0.444  25.561   0.430
31951W        W84847  18.384   3.614   9.858
31952W        W84848  31.478  23.857   1.504
31953W        W84849  12.350   0.207   7.573
31954W        W84850   2.476   1.421   7.919
31955W        W84851  32.851  34.702   9.997
31956W        W84852  30.419  19.780   2.909
31957W        W84853  32.006   9.116   0.484
31958W        W84854  30.436   1.854   1.226
31959W        W84855   3.539  19.387   1.381
31960W        W84856  18.047  27.387   2.672
31961W        W84857   8.557   9.037   2.334
31962W        W84858  27.007  18.946   7.870
31963W        W84859   2.309   6.454   9.101
31964W        W84860   4.857  22.613   3.664
31965W        W84861  30.044  15.275   0.238
31966W        W84862  26.199   2.742   0.537
31967W        W84863  11.939  22.307   0.250
31968W        W84864   6.761   8.746   8.454
31969W        W84865   3.976   6.389   8.334
31970W        W84866   0.205   8.763   2.107
31971W        W84867   0.089  17.606   0.485
31972W        W84868  34.507   5.159   7.776
31973W        W84869   5.160   9.563   1.228
31974W        W84870  28.322   5.162   9.516
31975W        W84871  20.905  31.000   7.727
31976W        W84872   8.189  32.464   0.255
31977W        W84873  10.431  21.159   6.725
31978W        W84874  33.798   0.864   8.798
31979W        W84875   2.894  22.348   2.760
31980W        W84876   7.915   4.172   1.814
31981W        W84877  25.053   8.420   9.241
31982W        W84878  12.287   4.466   8.900
31983W        W84879  34.583   5.313   9.704
31984W        W84880  35.549  12.917   0.218
31985W        W84881   7.974  11.867   1.840
31986W        W84882   8.497  30.017   7.713
31987W        W84883  25.899   3.950   2.862
31988W        W84884   2.514   9.510  10.256
31989W        W84885  32.383   1.478   9.204
31990W        W84886  31.080  16.287   0.260
31991W        W84887   1.853   8.578   8.411
31992W        W84888  15.303  34.774   9.190
31993W        W84889  13.627   3.143  10.249
31994W        W84890  18.112  14.778   1.158
31995W        W84891  11.874  18.133   7.828
31996W        W84892  31.609  11.182   2.859
31997W        W84893   5.334  34.596   3.139
31998W        W84894  23.088  25.050   0.216
31999W        W84895  28.025  31.593   7.973
32000W        W84896  20.695  14.713  10.252
32001W        W84897  18.555   9.499   9.287
32002W        W84898  11.336   5.813   2.593
32003W        W84899   3.640  15.884   8.653
32004W        W84900  14.031  21.641  10.140
32005W        W84901   7.984   3.803   0.223
32006W        W84902   0.454  21.627   0.186
32007W        W84903  12.109  28.921   1.106
32008W        W84904  24.787  29.825   9.463
32009W        W84905  21.473   5.187   1.297
32010W        W84906  17.630  34.680   8.211
32011W        W84907  30.264  30.159   1.171
32012W        W84908   6.851   9.962   7.402
32013W        W84909   6.832  31.104   0.573
32014W        W84910  12.576  15.797   8.867
32015W        W84911  27.572  13.794   1.024
32016W        W84912  18.401  18.765   2.239
32017W        W84913  29.385   3.979   1.153
32018W        W84914   8.667   2.071   1.636
32019W        W84915  34.207   5.484   8.810
32020W        W84916  21.483  15.231   7.130
32021W        W84917  14.356  29.064   0.583
32022W        W84918  14.869   3.140   1.444
32023W        W84919  23.086  26.612   1.420
32024W        W84920  12.806  32.057   0.285
32025W        W84921  13.026  13.511   8.770
32026W        W84922   0.992   6.646  10.316
32027W        W84923  20.339  13.591   0.703
32028W        W84924   8.458  29.776   1.878
32029W        W84925  28.935  17.663   9.514
32030W        W84926  31.852  30.888   9.070
32031W        W84927  33.394  22.856   0.054
32032W        W84928  12.136   2.995   1.962
32033W        W84929   1.212  20.308   9.890
32034W        W84930  13.547   5.153  10.151
32035W        W84931  21.456   5.383   8.453
32036W        W84932   4.071  26.629   1.471
32037W        W84933  31.999   7.148   0.257
32038W        W84934  16.551  24.719   0.152
32039W        W84935  30.390   9.761   0.336
32040W        W84936  20.218   8.887   9.069
32041W        W84937  20.446   9.639   9.645
32042W        W84938  25.382  31.625   0.766
32043W        W84939   4.725  29.290   2.424
32044W        W84940  22.422   7.139   0.026
32045W        W84941  12.667  22.456   2.286
32046W        W84942  30.761   9.599   8.017
32047W        W84943  27.899  12.189   8.047
32048W        W84944   3.420  17.867   7.822
32049W        W84945  19.459   7.963   9.628
32050W        W84946  25.927  34.444   8.194
32051W        W84947  15.724   5.026   8.220
32052W        W84948  24.508  26.486   1.908
32053W        W84949  14.317   4.646   2.425
32054W        W84950   7.757   8.769   7.343
32055W        W84951  13.540  27.748   2.489
32056W        W84952  22.815  27.918   1.183
32057W        W84953  16.462  10.834   8.505
32058W        W84954  15.813  10.781   8.544
32059W        W84955  33.428  25.994   8.066
32060W        W84956  26.126  26.757   0.801
32061W        W84957   2.918  32.950   8.793
32062W        W84958   1.395  27.900  10.024
32063W        W84959  24.684  11.846   9.298
32064W        W84960  15.680  18.631   3.534
32065W        W84961  28.461  15.233   1.080
32066W        W84962  13.891   5.623   0.446
32067W        W84963   5.939   6.259  10.152
32068W        W84964  23.695  13.518   2.321
32069W        W84965  22.570  19.329   2.969
32070W        W84966  22.076  22.743   2.022
32071W        W84967  31.222  32.609   8.225
32072W        W84968   5.653  18.743   8.938
32073W        W84969  16.040  33.721   2.649
32074W        W84970  13.071  34.300   3.450
32075W        W84971  20.082  16.677  10.080
32076W        W84972  27.432   4.883   3.457
32077W        W84973  14.255   9.687   8.346
32078W        W84974  11.574  32.130   1.006
32079W        W84975  32.017  32.467   8.843
32080W        W84976  25.066  26.447   2.987
32081W        W84977  16.592  30.109   0.525
32082W        W84978  11.214  12.339   2.154
32083W        W84979  20.667   6.199   7.566
32084W        W84980  30.243  26.688   7.307
32085W        W84981   0.304  15.902   8.713
32086W        W84982   9.496  10.190   1.025
32087W        W84983  29.752  29.114   2.332
32088W        W84984  10.780   6.670   9.513
32089W        W84985   8.499  31.627   2.889
32090W        W84986  22.210   6.628   1.638
32091W        W84987  10.685  22.988   8.223
32092W        W84988   9.208   4.188   8.079
32093W        W84989  15.119  28.813   2.612
32094W        W84990  25.151  25.356   9.006
32095W        W84991  35.641  28.669   0.279
32096W        W84992  34.249  33.849   9.398
32097W        W84993  19.842  11.985   1.194
32098W        W84994  21.055  32.688   8.537
32099W        W84995  16.037  35.747   0.503
32100W        W84996  26.671  33.792   2.195
32101W        W84997   6.639  29.126   9.664
32102W        W84998  26.876  25.143   8.915
32103W        W84999   7.649  14.605  10.004
32104W        W85000  34.922   2.460  10.124
32105W        W85001  18.761  20.494   9.246
32106W        W85002  28.251  34.323   0.800
32107W        W85003  25.145   3.531   8.385
32108W        W85004   1.685  28.510   2.820
32109W        W85005  20.318   7.748   9.491
32110W        W85006  11.590   0.887   1.149
32111W        W85007  32.077  12.500   0.067
32112W        W85008  12.281   7.895  10.295
32113W        W85009  35.243  16.530   2.424
32114W        W85010  24.399  11.819   7.378
32115W        W85011  30.840  10.127   1.301
32116W        W85012  15.228  27.320   2.438
32117W        W85013   7.310  29.855   1.506
32118W        W85014  18.300  32.802   8.960
32119W        W85015   3.543  13.237   0.619
32120W        W85016  22.052   7.010   9.387
32121W        W85017  29.162  14.215  10.171
32122W        W85018   3.833  12.181   4.087
32123W        W85019  10.084  10.226   1.769
32124W        W85020  26.662   3.226   0.135
32125W        W85021  21.139  26.831   8.077
32126W        W85022  14.863  13.248   1.734
32127W        W85023   1.455   7.558   1.295
32128W        W85024  31.509  24.969   1.343
32129W        W85025  25.355  26.723  10.323
32130W        W85026  33.061   3.299   1.270
32131W        W85027  20.831  30.269   2.366
32132W        W85028  28.881   4.394   0.408
32133W        W85029   4.473  25.497   7.654
32134W        W85030   7.661  31.478   1.049
32135W        W85031   8.599  13.388   8.963
32136W        W85032  35.927  28.145   9.058
32137W        W85033  13.269  27.262   8.126
32138W        W85034   1.428  13.060   8.997
32139W        W85035  27.730  33.180   0.400
32140W        W85036  19.426  33.122   9.049
32141W        W85037  18.904   5.822   2.724
32142W        W85038  12.005   5.590  10.226
32143W        W85039  32.728   4.998   9.233
32144W        W85040  21.518  21.795   9.818
32145W        W85041  13.925  23.207   8.741
32146W        W85042  34.202   6.133   8.656
32147W        W85043  19.250  15.493   8.918
32148W        W85044  20.967   0.262   2.802
32149W        W85045  31.854   4.776  10.093
32150W        W85046  23.669  20.331   7.939
32151W        W85047   7.187   9.395   1.786
32152W        W85048  22.209  23.256   3.167
32153W        W85049  12.069  35.072   9.747
32154W        W85050  30.773  27.591   0.853
32155W        W85051  35.581  34.344   2.360
32156W        W85052  20.069  14.450   0.326
32157W        W85053   6.865   7.143  10.073
32158W        W85054  19.360  16.673   1.045
32159W        W85055  13.223   1.054   2.329
32160W        W85056  11.124  12.401   7.447
32161W        W85057  34.036   7.269   0.722
32162W        W85058  21.282  27.754   1.738
32163W        W85059  34.585   4.269   8.286
32164W        W85060   9.341   7.333   8.930
32165W        W85061  11.639  27.197   2.205
32166W        W85062  18.085  10.145   8.740
32167W        W85063  18.290  23.585   0.502
32168W        W85064  23.175  20.652   1.808
32169W        W85065   4.094  17.595   7.222
32170W        W85066  12.517   6.625  10.243
32171W        W85067  15.277  26.610   0.481
32172W        W85068   4.724  30.767   8.569
32173W        W85069   0.424   6.143   9.910
32174W        W85070  32.206   6.506   0.104
32175W        W85071   4.260  25.605   2.963
32176W        W85072  27.073  32.809   2.161
32177W        W85073  16.049  19.383  10.297
32178W        W85074   8.592  11.720   0.029
32179W        W85075   0.112  33.143   0.788
32180W        W85076  29.843  19.253   3.458
32181W        W85077  13.909  34.861   7.301
32182W        W85078  29.768   8.598   0.485
32183W        W85079  26.214  13.150  10.318
32184W        W85080  34.322  22.810   8.501
32185W        W85081  33.484  14.583   2.907
32186W        W85082  34.549   7.206   8.210
32187W        W85083  32.486  20.382   7.341
32188W        W85084  35.452  22.720  10.268
32189W        W85085  12.759  13.772   1.166
32190W        W85086  30.297  17.446   8.919
32191W        W85087  19.017   4.030   1.568
32192W        W85088  34.752  20.918   1.028
32193W        W85089   4.834  14.963   3.213
32194W        W85090  21.019  33.181   0.169
32195W        W85091   4.599  10.654   7.993
32196W        W85092  10.391  23.264   1.567
32197W        W85093  35.856  17.415   1.298
32198W        W85094   8.523  24.027   8.456
32199W        W85095  34.484   2.603  10.131
32200W        W85096  23.814   9.140   2.732
32201W        W85097  20.610  11.320  10.072
32202W        W85098  35.204  35.161   3.080
32203W        W85099  35.880  11.376   8.474
32204W        W85100  22.595   4.006   1.739
32205W        W85101  13.839  20.778   0.935
32206W        W85102  35.511  10.809   9.809
32207W        W85103  12.430  15.327   3.195
32208W        W85104   9.497   9.763   3.840
32209W        W85105   6.332  21.917   0.886
32210W        W85106  34.739  31.046   0.290
32211W        W85107  31.859   8.476   9.671
32212W        W85108  31.691   4.299   7.873
32213W        W85109  30.465  35.994  10.207
32214W        W85110  11.772  19.778   7.864
32215W        W85111  30.209  15.294   1.202
32216W        W85112  15.917  29.007   0.562
32217W        W85113  12.155   1.991   0.013
32218W        W85114  13.287  22.364   3.096
32219W        W85115  17.284   5.395   9.733
32220W        W85116  31.246   1.780   0.723
32221W        W85117  22.563  16.825   2.558
32222W        W85118   0.229  15.386   1.243
32223W        W85119  28.650   4.348   2.845
32224W        W85120  34.988  23.443   8.704
32225W        W85121  10.628  24.348  10.162
32226W        W85122  33.664  33.017   9.048
32227W        W85123   7.185  24.321   2.013
32228W        W85124   9.557  35.141   8.257
32229W        W85125  25.758  23.004   0.929
32230W        W85126   8.613  15.255   0.116
32231W        W85127   8.341   8.660   1.993
32232W        W85128  16.056   9.886   2.725
32233W        W85129  28.938  29.772   8.709
32234W        W85130  10.404   5.289   7.066
32235W        W85131  31.566  15.967  10.092
32236W        W85132   2.436   5.464   8.335
32237W        W85133  27.301  24.814   0.491
32238W        W85134   4.466  13.653   2.662
32239W        W85135  26.759  19.338   7.522
32240W        W85136  25.309   2.082   8.372
32241W        W85137   3.749  19.600   0.308
32242W        W85138   3.211  27.258   9.904
32243W        W85139   3.816  26.354   0.588
32244W        W85140   1.298  25.381   0.829
32245W        W85141  31.612  14.272   1.801
32246W        W85142  29.989  17.181   2.151
32247W        W85143  14.158  22.483   1.359
32248W        W85144  32.931  26.228   2.387
32249W        W85145  21.159  16.160   3.071
32250W        W85146  26.875  23.059   9.247
32251W        W85147  14.189   2.138   0.815
32252W        W85148   8.416  21.358   1.838
32253W        W85149  23.367  31.747   2.502
32254W        W85150  32.883  12.188   7.336
32255W        W85151   0.920   6.143   7.700
32256W        W85152  32.735  22.391   2.673
32257W        W85153  12.447  10.504   1.262
32258W        W85154  21.524  12.660   8.001
32259W        W85155  18.833  11.485  10.325
32260W        W85156  24.227  22.349   2.859
32261W        W85157   5.492   1.285   2.817
32262W        W85158   5.841  21.050   0.453
32263W        W85159   8.383   3.803   0.548
32264W        W85160  25.700  35.193   2.387
32265W        W85161   1.495  19.570   9.696
32266W        W85162  15.649  24.662   3.272
32267W        W85163   5.496  26.857   9.103
32268W        W85164   5.735  30.683   9.505
32269W        W85165  26.694   1.830   1.556
32270W        W85166   5.894  18.364   9.914
32271W        W85167  13.460   4.762   8.574
32272W        W85168  19.485  16.305   8.315
32273W        W85169   9.935  33.846   0.500
32274W        W85170  28.719  23.360   1.929
32275W        W85171   4.114  29.035   1.613
32276W        W85172   3.207  26.331   2.203
32277W        W85173  18.410  33.419   2.181
32278W        W85174  27.978  29.315   0.713
32279W        W85175  12.666  21.771  10.022
32280W        W85176   1.110  24.080   8.410
32281W        W85177  35.249  21.472   9.099
32282W        W85178  28.753   0.062   1.911
32283W        W85179   6.521   0.886   7.620
32284W        W85180  23.528   2.593   1.120
32285W        W85181  19.263  24.487   1.958
32286W        W85182  12.983  25.994   7.232
32287W        W85183  13.079   9.031   0.102
32288W        W85184  20.629   0.559  10.104
32289W        W85185   7.499  35.891   0.242
32290W        W85186  20.364   3.971   9.581
32291W        W85187  21.228   4.493   0.162
32292W        W85188  32.964  35.556  10.293
32293W        W85189  33.238   0.572   7.283
32294W        W85190  30.221  14.731   9.373
32295W        W85191   0.543  29.197   7.812
32296W        W85192  31.790  33.729   1.076
32297W        W85193  10.382   4.428   2.326
32298W        W85194   8.947  33.137   1.966
32299W        W85195  33.416  15.436   0.432
32300W        W85196   4.045  18.536   1.724
32301W        W85197  14.565  30.109   1.612
32302W        W85198  31.504   7.632  10.136
32303W        W85199   5.550  21.262   2.155
32304W        W85200  25.361  17.882   0.227
32305W        W85201   3.764  17.075   0.866
32306W        W85202   2.305  22.683   2.979
32307W        W85203   6.038  23.771   8.802
32308W        W85204  35.959  21.569   0.106
32309W        W85205  21.288  23.877   1.799
32310W        W85206   5.772  33.154   9.397
32311W        W85207  13.152   3.385   9.939
32312W        W85208  15.394  12.963   8.744
32313W        W85209  24.061  11.668   9.998
32314W        W85210  17.805  22.465   8.834
32315W        W85211   3.579   7.469   8.548
32316W        W85212  24.679  31.201   3.711
32317W        W85213  25.453  13.132   1.683
32318W        W85214  10.437  17.036   8.373
32319W        W85215  33.330  33.063   1.720
32320W        W85216   5.675   4.223   7.672
32321W        W85217  32.192  26.339   9.761
32322W        W85218   3.699  35.263   1.703
32323W        W85219  21.927  29.480   9.423
32324W        W85220   9.684  25.236   0.923
32325W        W85221   0.920  11.220   0.619
32326W        W85222  30.740  28.738   1.755
32327W        W85223  19.978  12.544   8.826
32328W        W85224   2.358  35.471   9.695
32329W        W85225  23.230   0.572   2.948
32330W        W85226   8.826   7.843   2.097
32331W        W85227  10.551  33.279   0.790
32332W        W85228  16.934  28.975   1.471
32333W        W85229  21.103  22.194   0.957
32334W        W85230  21.917  28.753  10.270
32335W        W85231  21.648  26.787   1.811
32336W        W85232  35.311  15.160  10.285
32337W        W85233  17.034  20.861   2.385
32338W        W85234   0.627  11.343   8.700
32339W        W85235  14.205   7.324   2.081
32340W        W85236   8.976  19.163   2.517
32341W        W85237   4.125   8.809   3.650
32342W        W85238  13.019   1.289  10.117
32343W        W85239  33.830  15.059   9.408
32344W        W85240   0.764  13.498   1.143
32345W        W85241  15.181   4.880   3.282
32346W        W85242  10.736  30.379   0.427
32347W        W85243  34.378  30.102   8.390
32348W        W85244  28.973  31.383   2.677
32349W        W85245  19.934  21.069   9.480
32350W        W85246  22.869  33.767   2.092
32351W        W85247  12.583  17.406   7.960
32352W        W85248   0.789   0.754   9.357
32353W        W85249  13.666  27.099   8.686
32354W        W85250  18.818  31.835   8.898
32355W        W85251  23.541  26.392   9.121
32356W        W85252   2.669  21.641   8.918
32357W        W85253   5.460   6.472   3.232
32358W        W85254  23.231  28.196   0.049
32359W        W85255  22.948  19.882   2.493
32360W        W85256   5.868   4.448   2.852
32361W        W85257  15.511   3.631   2.195
32362W        W85258   6.985  24.027   9.291
32363W        W85259  16.574   7.952   1.586
32364W        W85260   1.345  17.638   9.733
32365W        W85261  28.034  30.208   9.427
32366W        W85262  20.217  25.737   4.125
32367W        W85263  21.685  14.466   3.561
32368W        W85264  24.932   5.210   8.735
32369W        W85265  20.484  21.718   1.716
32370W        W85266  15.164  15.970   0.850
32371W        W85267   6.849  25.676   2.675
32372W        W85268  25.019  14.853   9.230
32373W        W85269  18.054  15.983   0.604
32374W        W85270   1.745   2.554  10.309
32375W        W85271  26.684  30.854   6.678
32376W        W85272  19.521  26.214   1.952
32377W        W85273  20.029   4.645   1.984
32378W        W85274  26.604  15.314   1.147
32379W        W85275  31.509  12.373   1.041
32380W        W85276  18.829   9.106   2.937
32381W        W85277  20.336  27.470   1.234
32382W        W85278   8.244   5.117   9.269
32383W        W85279  21.019  18.651   9.951
32384W        W85280   5.277  20.214   2.245
32385W        W85281  15.691  15.116   8.561
32386W        W85282  11.595   6.880   9.579
32387W        W85283  32.958  24.644   2.088
32388W        W85284   0.126   6.756   3.190
32389W        W85285  24.291  22.573   0.349
32390W        W85286  32.681   6.038   2.781
32391W        W85287   1.943  28.547   7.859
32392W        W85288  29.774  17.840   8.169
32393W        W85289   3.502  20.267   2.715
32394W        W85290  16.417   0.675   7.535
32395W        W85291   1.914  31.010   0.743
32396W        W85292  17.721  29.498   7.146
32397W        W85293  15.182  12.834   2.731
32398W        W85294  23.056   2.885   1.212
32399W        W85295   3.129   2.014   9.217
32400W        W85296  17.781  33.593   0.125
32401W        W85297   6.520  18.412   1.950
32402W        W85298  17.339  16.083   9.458
32403W        W85299  33.333  31.918   1.044
32404W        W85300   9.893   1.187   0.789
32405W        W85301  16.589  13.633   8.442
32406W        W85302  27.442   5.726   2.286
32407W        W85303  20.481  35.063   2.119
32408W        W85304  34.936   9.869   8.891
32409W        W85305   4.078  20.648   1.056
32410W        W85306  22.318   0.479   7.851
32411W        W85307  24.880  23.384   0.414
32412W        W85308  10.995  32.933   0.983
32413W        W85309  15.617  16.009   0.568
32414W        W85310  35.513  16.861   0.058
32415W        W85311  19.471  29.189   0.308
32416W        W85312   3.664  33.952   2.804
32417W        W85313  19.404  11.796   1.666
32418W        W85314  31.402  25.358   9.246
32419W        W85315   3.547  15.976   7.712
32420W        W85316  30.326  15.988  10.123
32421W        W85317   3.504  15.498   8.916
32422W        W85318  24.500   4.902   2.994
32423W        W85319  17.294  20.386   2.480
32424W        W85320  10.439  23.329  10.182
32425W        W85321  11.309  17.963   7.645
32426W        W85322  26.277  30.216   0.800
32427W        W85323   0.401  32.498   2.831
32428W        W85324  19.165  20.418   0.589
32429W        W85325   8.551  21.156   9.631
32430W        W85326  22.490  24.109   2.162
32431W        W85327   5.600   9.055   9.078
32432W        W85328   3.903   4.067   1.472
32433W        W85329  24.034  26.474   2.470
32434W        W85330  18.519  29.260   9.691
32435W        W85331  30.775   2.961   2.666
32436W        W85332   2.388  21.388   0.493
32437W        W85333  32.466  12.675   8.184
32438W        W85334  19.458   3.941   9.276
32439W        W85335  23.847  12.096   1.717
32440W        W85336   1.740  33.809   1.382
32441W        W85337  28.305  35.395   9.209
32442W        W85338  29.931   0.199   8.686
32443W        W85339  28.123   7.097   8.766
32444W        W85340  27.139  21.826   2.491
32445W        W85341  19.889  27.340   1.237
32446W        W85342  35.360   2.809   7.969
32447W        W85343   0.863  32.827   1.033
32448W        W85344   4.911  10.905   8.420
32449W        W85345  34.679   8.057   0.521
32450W        W85346  16.499  23.598   8.313
32451W        W85347  27.086  16.410   9.156
32452W        W85348   6.350   3.966   9.792
32453W        W85349  29.365   3.162   0.278
32454W        W85350  27.377   0.876   8.888
32455W        W85351  24.952  22.884   8.521
32456W        W85352  32.454  26.163   8.222
32457W        W85353  27.341  19.060   9.083
32458W        W85354  23.330  35.318   8.440
32459W        W85355  13.914   3.653   1.540
32460W        W85356  30.546  11.406   0.995
32461W        W85357  10.297  10.802   9.368
32462W        W85358  14.189  34.425   8.564
32463W        W85359  30.418  34.489   0.109
32464W        W85360  16.605   0.706   1.257
32465W        W85361  15.013   7.236   8.956
32466W        W85362  17.507  21.405   8.038
32467W        W85363  25.464  21.721   8.262
32468W        W85364  14.566  12.099   2.621
32469W        W85365   1.317   6.037   2.115
32470W        W85366  28.948   0.893   7.431
32471W        W85367  17.586  21.107   0.225
32472W        W85368   6.797   5.786   0.539
32473W        W85369  23.983  12.893   9.404
32474W        W85370  19.885   2.823   2.879
32475W        W85371  32.283  14.846   0.146
32476W        W85372   3.239   5.503   9.212
32477W        W85373  33.300  11.939   0.611
32478W        W85374  21.763  18.456   2.069
32479W        W85375  11.638  21.221  10.130
32480W        W85376  22.002  27.438   8.300
32481W        W85377  26.660  22.266   9.865
32482W        W85378  32.270  27.866   2.909
32483W        W85379  33.152  24.540   3.504
32484W        W85380  21.142  27.790   0.768
32485W        W85381  30.785   9.203   8.375
32486W        W85382  26.863  24.271   8.706
32487W        W85383  20.263  29.572   2.521
32488W        W85384  34.343   4.501   2.861
32489W        W85385  26.075   6.579   1.492
32490W        W85386   2.203  29.550   0.977
32491W        W85387  33.935   2.542   1.732
32492W        W85388  14.419  26.055   1.123
32493W        W85389  32.442  20.692   7.815
32494W        W85390   5.476   5.536   2.068
32495W        W85391  12.670  29.516   0.905
32496W        W85392  12.911  28.077  10.141
32497W        W85393   7.667  13.922   3.414
32498W        W85394  20.488   1.287   3.465
32499W        W85395  35.965  11.725   1.403
32500W        W85396  25.250  24.009   0.195
32501W        W85397  17.142  27.295   7.729
32502W        W85398   5.708  14.361   8.788
32503W        W85399  15.898  18.066   2.940
32504W        W85400  16.165  23.322   3.178
32505W        W85401  16.544  28.219   8.551
32506W        W85402  17.309  34.407   1.321
32507W        W85403  14.787   2.156   7.408
32508W        W85404  30.887  21.838   0.529
32509W        W85405  29.248  15.272   2.817
32510W        W85406   7.815   5.960   3.101
32511W        W85407   2.258   1.642   9.005
32512W        W85408   2.396  10.679   3.373
32513W        W85409  35.803  12.278   2.566
32514W        W85410  12.049  23.971   0.186
32515W        W85411   3.416  23.231   2.220
32516W        W85412  30.333  22.267   1.873
32517W        W85413   9.015  16.440   0.448
32518W        W85414  15.919   8.360  10.252
32519W        W85415   9.383  21.158   8.935
32520W        W85416   4.000  32.996   8.163
32521W        W85417  31.526  29.809  10.229
32522W        W85418  16.331  14.392   2.266
32523W        W85419  12.710   6.794   0.442
32524W        W85420   9.277  24.617   9.730
32525W        W85421   0.507   1.029   8.098
32526W        W85422   3.339   2.294   0.328
32527W        W85423  25.426   5.875   1.592
32528W        W85424  31.329  16.443   9.646
32529W        W85425  21.408   7.014  10.133
32530W        W85426   6.193  16.645   8.220
32531W        W85427   2.111  14.279   9.484
32532W        W85428  18.814  10.183   9.998
32533W        W85429   1.420  35.598   9.977
32534W        W85430  21.884  35.511   0.121
32535W        W85431  12.127  18.418   0.574
32536W        W85432  31.536  24.430   3.666
32537W        W85433  21.139  14.075   1.346
32538W        W85434   0.537  30.652   0.529
32539W        W85435  30.085  13.538   1.176
32540W        W85436   9.602  10.904   2.950
32541W        W85437   6.187   7.917   9.443
32542W        W85438  22.293  22.327   2.878
32543W        W85439  35.456  11.938   2.724
32544W        W85440  25.455  18.782  10.137
32545W        W85441  33.730   0.061   7.402
32546W        W85442   1.670   6.410   0.811
32547W        W85443  28.408  35.675   1.565
32548W        W85444   3.029  18.551  10.176
32549W        W85445  18.897  18.556   9.817
32550W        W85446   9.776   7.366   0.531
32551W        W85447  29.374  27.088   9.783
32552W        W85448  29.643  22.560   3.375
32553W        W85449  17.306  23.062   7.566
32554W        W85450  35.116   0.102   9.617
32555W        W85451  19.718  19.389   1.330
32556W        W85452  26.019  17.682   3.535
32557W        W85453  11.056   0.527   2.676
32558W        W85454  30.312  18.407   7.534
32559W        W85455  11.209  15.141   8.435
32560W        W85456  34.151  25.048   0.564
32561W        W85457  20.624  12.574   1.545
32562W        W85458  34.973  29.563   2.282
32563W        W85459  11.934   4.294   2.915
32564W        W85460  21.958  21.989   1.383
32565W        W85461  11.181  16.556   0.681
32566W        W85462  20.911  31.471   9.333
32567W        W85463   9.735  18.024   0.158
32568W        W85464  13.861  17.080   3.003
32569W        W85465  22.521  17.483   0.271
32570W        W85466  32.885   6.476   7.888
32571W        W85467   1.010  10.280   1.738
32572W        W85468  21.207  14.204   9.606
32573W        W85469  18.608  33.897   1.747
32574W        W85470  16.676   2.745   0.737
32575W        W85471  31.479   1.338   1.951
32576W        W85472   8.312  14.138   9.849
32577W        W85473   6.712  21.921   3.363
32578W        W85474   9.577  35.288   0.657
32579W        W85475   4.340  13.827   3.124
32580W        W85476  27.891  31.028  10.061
32581W        W85477  20.032  26.345   2.643
32582W        W85478  17.623  10.168   9.809
32583W        W85479  21.039   3.541   0.028
32584W        W85480   7.473   1.169   7.407
32585W        W85481  28.742  27.232   8.296
32586W        W85482  14.714  17.985   9.021
32587W        W85483  26.103  10.485   3.432
32588W        W85484  29.176   3.695   2.442
32589W        W85485  17.886  17.298   7.900
32590W        W85486  29.129   1.674  10.090
32591W        W85487  23.089   3.788   2.548
32592W        W85488  20.995   5.837   8.177
32593W        W85489   3.431  26.798   2.138
32594W        W85490   8.996  15.794  10.091
32595W        W85491  35.012  15.869   8.887
32596W        W85492  16.814  21.540   1.868
32597W        W85493  10.325   5.763   7.204
32598W        W85494  33.691  13.785   8.540
32599W        W85495  19.594  11.108   1.268
32600W        W85496  35.768  28.263   9.597
32601W        W85497  30.134  13.384   9.187
32602W        W85498  26.780   7.402   2.996
32603W        W85499  33.650   5.481   0.357
32604W        W85500  13.216  32.040   0.545
32605W        W85501   4.891  12.474   0.948
32606W        W85502  21.044   8.979   7.898
32607W        W85503  30.445   7.936   2.985
32608W        W85504  31.402   6.089   1.081
32609W        W85505  13.921  28.780   0.305
32610W        W85506   6.667   8.682   2.667
32611W        W85507  33.825  10.680   1.548
32612W        W85508  22.413  11.491   0.127
32613W        W85509  22.394   6.372   0.833
32614W        W85510  12.668   8.213   2.019
32615W        W85511  19.014  11.642   8.777
32616W        W85512  29.780  26.845   2.288
32617W        W85513   0.064  24.602   9.405
32618W        W85514   3.999  21.474   8.346
32619W        W85515  26.268  14.508   8.670
32620W        W85516  19.376  12.049   3.699
32621W        W85517  23.072  34.010   3.460
32622W        W85518  31.913  10.390   7.914
32623W        W85519  29.104  16.245   0.299
32624W        W85520  21.698   7.577   8.810
32625W        W85521   4.509  22.281   1.630
32626W        W85522   5.378  14.612   2.300
32627W        W85523  24.234  16.618   8.514
32628W        W85524  33.956  24.558   0.615
32629W        W85525   0.264   5.290   1.076
32630W        W85526   2.158  31.316   1.662
32631W        W85527  20.443   3.303   9.900
32632W        W85528  24.374  35.833   9.184
32633W        W85529  23.055  30.962   7.649
32634W        W85530   6.979  15.600   7.912
32635W        W85531  11.195  18.288   1.560
32636W        W85532  24.332  24.210   1.813
32637W        W85533   5.684  20.216   0.120
32638W        W85534  12.614  11.342  10.081
32639W        W85535  15.575  12.533   1.798
32640W        W85536  32.870  14.454   1.841
32641W        W85537  20.565  32.070   3.155
32642W        W85538   9.243  19.256   0.192
32643W        W85539   2.263  29.932   8.263
32644W        W85540   4.744  33.152   1.158
32645W        W85541   4.132   4.404   9.380
32646W        W85542   5.532   9.935   1.190
32647W        W85543   6.491  13.458   8.830
32648W        W85544  19.835  12.905   2.604
32649W        W85545  27.331   1.806   1.938
32650W        W85546  33.696   7.825   0.047
32651W        W85547  19.442  17.322   9.779
32652W        W85548  33.927  20.179   8.729
32653W        W85549  22.556  10.430   2.974
32654W        W85550  21.848  18.608   2.578
32655W        W85551  18.407   9.957   1.985
32656W        W85552  25.083  11.174  10.257
32657W        W85553  10.354  26.422   2.344
32658W        W85554  31.887  20.485   2.271
32659W        W85555  17.077  24.000   9.805
32660W        W85556  14.671  34.445   7.587
32661W        W85557  24.094  23.238   9.330
32662W        W85558   5.384  31.978   1.085
32663W        W85559   6.511  28.800   2.581
32664W        W85560  26.829  13.365   2.077
32665W        W85561   7.173  27.653   0.100
32666W        W85562   4.856  30.836   3.490
32667W        W85563  34.952  30.841   2.369
32668W        W85564   5.766   4.059   9.868
32669W        W85565   0.566  19.787   1.185
32670W        W85566  23.578  20.949   0.708
32671W        W85567  14.992  33.103   7.892
32672W        W85568  17.561   8.355   0.535
32673W        W85569   0.680   1.326   1.226
32674W        W85570  19.113  31.547   8.304
32675W        W85571  24.587  21.373   1.738
32676W        W85572  18.440  27.200   1.253
32677W        W85573  14.466  19.347   2.318
32678W        W85574   3.744  10.406   1.582
32679W        W85575  26.962   4.938   2.845
32680W        W85576   3.451  19.606   2.288
32681W        W85577  25.781  19.628  10.193
32682W        W85578  27.666  25.576   0.040
32683W        W85579  14.141  23.047   7.457
32684W        W85580  32.823  22.967   0.111
32685W        W85581  10.534  10.725   8.883
32686W        W85582  19.523  27.568   2.239
32687W        W85583  20.751  25.800   8.745
32688W        W85584  10.420  35.987   7.803
32689W        W85585  16.403   2.340   8.827
32690W        W85586  15.272  16.452   3.110
32691W        W85587  32.755  17.131   0.179
32692W        W85588   1.759  14.139   3.139
32693W        W85589   2.420  23.014   8.874
32694W        W85590  10.187   8.225   2.182
32695W        W85591   4.250  31.126   0.988
32696W        W85592   2.873  23.767   2.772
32697W        W85593  18.401  16.100   2.473
32698W        W85594   6.756   5.350   9.778
32699W        W85595  30.744   0.197   1.309
32700W        W85596  12.691  30.082   8.728
32701W        W85597  33.602   6.238  10.312
32702W        W85598   1.230  35.803   8.261
32703W        W85599  31.478  29.549   2.608
32704W        W85600  28.386   9.114   0.718
32705W        W85601  20.517  23.486   1.400
32706W        W85602   6.690  33.783   8.129
32707W        W85603  10.775  21.765   6.822
32708W        W85604   9.855   3.748   9.280
32709W        W85605  23.072  21.675   8.356
32710W        W85606  32.836   9.275   7.446
32711W        W85607   0.497  18.579   0.162
32712W        W85608  25.198  13.493   1.476
32713W        W85609  17.180  27.832   8.014
32714W        W85610  35.470   5.509   9.184
32715W        W85611  16.937  28.772   2.013
32716W        W85612  25.556  20.408   7.268
32717W        W85613  35.466  35.643   2.727
32718W        W85614  18.270  30.464   8.066
32719W        W85615  33.794  28.192   1.957
32720W        W85616  33.675   1.079   9.360
32721W        W85617  16.329   2.803   8.553
32722W        W85618   6.869   8.226   2.688
32723W        W85619   7.696  33.902   2.470
32724W        W85620   2.792   7.903   0.684
32725W        W85621   2.867  16.130   2.556
32726W        W85622   2.890  32.230   1.643
32727W        W85623  14.541   7.053   8.941
32728W        W85624  15.472  24.683   8.062
32729W        W85625  26.648  34.443   1.408
32730W        W85626  32.393   5.403   7.400
32731W        W85627   0.189  12.770   8.492
32732W        W85628  13.574  12.756   1.033
32733W        W85629   5.464  19.772   0.278
32734W        W85630   7.489  24.594   2.867
32735W        W85631  29.896  33.618   7.608
32736W        W85632  16.856   0.513   0.830
32737W        W85633  35.714   5.856   9.449
32738W        W85634  27.267  20.023   0.876
32739W        W85635  12.224  28.731   1.536
32740W        W85636   0.270   2.801   0.372
32741W        W85637   6.249   7.363   7.171
32742W        W85638  16.543  18.754   1.419
32743W        W85639  12.110   1.165  10.097
32744W        W85640  32.480  31.063   8.156
32745W        W85641   3.554  17.747   8.696
32746W        W85642  28.623  27.504   7.924
32747W        W85643   9.527  35.909   7.713
32748W        W85644  32.603  26.588   3.151
32749W        W85645  28.685  19.274  10.284
32750W        W85646  28.984   9.324   9.635
32751W        W85647  30.238   3.692   2.406
32752W        W85648  20.980   5.757  10.075
32753W        W85649  26.976  13.595   3.541
32754W        W85650  27.085   3.395   1.056
32755W        W85651  12.881   7.869   1.698
32756W        W85652  27.894  27.027   1.598
32757W        W85653  35.880  27.947   8.580
32758W        W85654  21.847  14.002   7.652
32759W        W85655   5.140  17.369   2.452
32760W        W85656  29.216  17.111   8.258
32761W        W85657  22.778  16.379   2.791
32762W        W85658  11.329  30.719   0.297
32763W        W85659  34.193  17.349   2.297
32764W        W85660   7.736  17.791   8.416
32765W        W85661  26.112  19.647   2.093
32766W        W85662   2.102  23.173   3.062
32767W        W85663  13.542  10.022   0.769
32768W        W85664   8.889  28.537   1.444
32769W        W85665  32.860   1.943   1.575
32770W        W85666  28.293   6.099  10.182
32771W        W85667  23.720   7.980   9.900
32772W        W85668   9.304  30.335   7.854
32773W        W85669  25.655  30.393   0.469
32774W        W85670  23.345  14.227   2.994
32775W        W85671   3.078  31.267   0.976
32776W        W85672  19.138  10.663   1.277
32777W        W85673   1.495  22.434   3.719
32778W        W85674  16.254  18.712   0.957
32779W        W85675  32.899  20.956   9.718
32780W        W85676   0.616  28.707   9.442
32781W        W85677  34.917   4.579   9.308
32782W        W85678   8.135   0.618   8.648
32783W        W85679  34.955  32.657   7.457
32784W        W85680  23.079  19.700   1.967
32785W        W85681   9.094   0.491   9.781
32786W        W85682  29.882   8.265   3.143
32787W        W85683   9.124  24.086   9.637
32788W        W85684   4.526  11.948   1.760
32789W        W85685  21.381  30.927   2.987
32790W        W85686  32.518  28.364   1.558
32791W        W85687  16.609  18.669   0.407
32792W        W85688  14.315  12.207   3.554
32793W        W85689  21.503  22.959   8.396
32794W        W85690  34.496   0.193   8.246
32795W        W85691  31.746  27.055   9.390
32796W        W85692   5.495   1.310  10.326
32797W        W85693  21.190   3.155   1.202
32798W        W85694  20.082  24.556   2.474
32799W        W85695  34.913   9.291   3.414
32800W        W85696  10.854  32.922   0.493
32801W        W85697  27.797   6.048   9.558
32802W        W85698  31.897  29.871   0.286
32803W        W85699  30.155   1.997   0.790
32804W        W85700   5.014   2.435   2.463
32805W        W85701  12.602  24.926   2.695
32806W        W85702   6.479   0.258   1.243
32807W        W85703   3.030   6.276   2.138
32808W        W85704  12.804  21.658   8.926
32809W        W85705   9.690  14.081   2.755
32810W        W85706  23.472  28.006   8.889
32811W        W85707  27.932  24.189   1.515
32812W        W85708   3.374  30.273   8.754
32813W        W85709   0.793  34.766   2.672
32814W        W85710  15.660   7.015   0.078
32815W        W85711  22.965  24.115   7.841
32816W        W85712  18.583  21.564   0.791
32817W        W85713   2.740  34.642   7.249
32818W        W85714   5.794  13.396   1.073
32819W        W85715  14.762  11.907   7.664
32820W        W85716  19.109  33.233   1.584
32821W        W85717   7.756  34.461   3.277
32822W        W85718  19.284  22.270   1.333
32823W        W85719  18.684  25.070   9.174
32824W        W85720  24.071   9.852   9.892
32825W        W85721  29.609  14.902   1.686
32826W        W85722  21.746   9.724   9.547
32827W        W85723  30.980   5.923   2.669
32828W        W85724  24.368  17.327   2.378
32829W        W85725  26.378   6.506   2.848
32830W        W85726   5.086   7.833   0.775
32831W        W85727  21.855  34.729   9.292
32832W        W85728  33.900  27.826   0.032
32833W        W85729  13.121  12.652   9.918
32834W        W85730  18.588  20.978   0.602
32835W        W85731  24.673  14.117   1.670
32836W        W85732   1.375   6.606   7.631
32837W        W85733  19.718   5.832   2.727
32838W        W85734  35.643  20.150   1.524
32839W        W85735  13.702  31.621   3.653
32840W        W85736  16.168  11.421   2.777
32841W        W85737  28.907  22.263   2.278
32842W        W85738   9.430  30.597  10.329
32843W        W85739   5.026  11.113   0.231
32844W        W85740  24.194  10.356   1.163
32845W        W85741  16.604   2.338   9.243
32846W        W85742   7.812  19.893   1.881
32847W        W85743   9.802  10.974   9.548
32848W        W85744   0.827  20.651   1.025
32849W        W85745  22.890  13.829   9.157
32850W        W85746   2.473  15.451   4.162
32851W        W85747  15.808  34.896   8.940
32852W        W85748  18.468   7.098   2.666
32853W        W85749  26.452  23.771   1.080
32854W        W85750   1.541  21.450   1.799
32855W        W85751  12.848  16.366   7.858
32856W        W85752  31.841   9.058   1.814
32857W        W85753  18.214  17.854   8.948
32858W        W85754  22.593  30.924   0.839
32859W        W85755  28.010  12.508   8.790
32860W        W85756  24.499  11.489   9.625
32861W        W85757  22.924   4.586   7.526
32862W        W85758   8.507  24.006   8.911
32863W        W85759  30.927  23.525   1.643
32864W        W85760   1.807  11.505   3.289
32865W        W85761  21.090   1.644   0.933
32866W        W85762   3.254  11.550   3.471
32867W        W85763  26.894  23.251   0.402
32868W        W85764  31.340  13.824   1.749
32869W        W85765  10.200  27.189   2.461
32870W        W85766  23.622  12.027   1.252
32871W        W85767  26.149  13.096   8.789
32872W        W85768  13.450   6.477   0.735
32873W        W85769  10.473  14.534   2.414
32874W        W85770  20.573  17.942   3.142
32875W        W85771  33.809   9.595   9.563
32876W        W85772   2.478  26.464   0.243
32877W        W85773  20.227  22.381   1.110
32878W        W85774  22.422   1.052   1.780
32879W        W85775  24.363  26.904   0.895
32880W        W85776   9.743  17.777   7.843
32881W        W85777  20.234  13.228   3.648
32882W        W85778   4.654  21.716   9.538
32883W        W85779  31.913   0.908   7.737
32884W        W85780   6.899  18.234   7.444
32885W        W85781  11.296   4.695   2.525
32886W        W85782  27.105   9.696   0.900
32887W        W85783  18.006   5.236   0.630
32888W        W85784  20.381   8.675   9.883
32889W        W85785   2.343  11.021   7.465
32890W        W85786  26.252  18.614   8.218
32891W        W85787  34.010   2.178   8.086
32892W        W85788   1.413  18.921   8.200
32893W        W85789   6.043  31.902  10.128
32894W        W85790  32.770   9.517   2.639
32895W        W85791  18.471  22.505   3.039
32896W        W85792  18.328  14.475   2.615
32897W        W85793  13.559  13.246   1.194
32898W        W85794   0.369  29.150   0.463
32899W        W85795  30.081  24.378   9.423
32900W        W85796  29.499   7.950   9.700
32901W        W85797   0.126  23.796   8.937
32902W        W85798   3.341  12.939   3.908
32903W        W85799  21.641  19.372   8.229
32904W        W85800   1.979  30.830   3.356
32905W        W85801  19.222   4.422   8.627
32906W        W85802  23.378  30.180   9.552
32907W        W85803   8.688   2.371   1.222
32908W        W85804  28.523  19.127   8.002
32909W        W85805  35.854  12.551   1.509
32910W        W85806  32.554  23.815  10.212
32911W        W85807  24.883  10.043   0.578
32912W        W85808  26.974   0.666   7.471
32913W        W85809   6.547  22.686   9.626
32914W        W85810   9.499  23.140   7.317
32915W        W85811   9.075  29.932   7.678
32916W        W85812   7.123   5.889   9.169
32917W        W85813  23.926  15.084   8.098
32918W        W85814  21.200  15.151   0.751
32919W        W85815  35.888   7.248   9.827
32920W        W85816  10.803   3.365  10.325
32921W        W85817  26.736  25.715   9.322
32922W        W85818  25.777   5.715   0.743
32923W        W85819  11.882  17.907   0.946
32924W        W85820  19.699  34.780   1.453
32925W        W85821  18.325  10.154   2.769
32926W        W85822   9.184  23.063   7.739
32927W        W85823  23.720  33.484   1.466
32928W        W85824   8.833   7.613   7.704
32929W        W85825   7.652  16.975   3.259
32930W        W85826  21.422   3.199   0.704
32931W        W85827  27.848  23.976   2.035
32932W        W85828  26.310  34.538   1.789
32933W        W85829  23.216  28.707   0.273
32934W        W85830  22.573  35.024   0.003
32935W        W85831  17.709  13.035   1.016
32936W        W85832  12.878   8.186   1.186
32937W        W85833  28.763  10.365   8.967
32938W        W85834  31.590   9.094   7.806
32939W        W85835   1.831   9.165   2.364
32940W        W85836   8.157  14.691   9.982
32941W        W85837  20.524   5.479  10.054
32942W        W85838  25.782  14.916   1.138
32943W        W85839  10.852  33.590   8.734
32944W        W85840   0.902  35.963   1.337
32945W        W85841  33.332  17.227   2.321
32946W        W85842  14.264  11.647   0.874
32947W        W85843   6.408   1.718   8.111
32948W        W85844   8.612  26.051   6.426
32949W        W85845  10.759  26.612   7.272
32950W        W85846  12.169  18.653   9.354
32951W        W85847   7.242  29.119   7.831
32952W        W85848  27.849  24.520   8.308
32953W        W85849  22.572  32.313   1.760
32954W        W85850   8.310  22.331   1.696
32955W        W85851  17.265  23.070   9.233
32956W        W85852  26.137  23.876   7.838
32957W        W85853  25.155  18.289   0.500
32958W        W85854  33.619  16.701   0.101
32959W        W85855  20.948  32.140   1.348
32960W        W85856  23.408  30.138   3.236
32961W        W85857   8.623   9.598   0.677
32962W        W85858  13.282   6.720   1.793
32963W        W85859  32.713   7.354   1.004
32964W        W85860   0.057  30.271   9.004
32965W        W85861  16.745  22.764   3.174
32966W        W85862  20.836   5.741   0.537
32967W        W85863  24.815  31.955   2.511
32968W        W85864  26.607  31.284   0.825
32969W        W85865  33.236  32.870   0.416
32970W        W85866   8.953  11.046   0.362
32971W        W85867  35.354  16.852   3.790
32972W        W85868   6.458   9.750   3.122
32973W        W85869   6.296   7.594   0.924
32974W        W85870   2.681  11.331  10.136
32975W        W85871  29.418   2.823   2.770
32976W        W85872  17.689  23.584   1.549
32977W        W85873   1.503  33.652   0.618
32978W        W85874  19.990   3.991   0.943
32979W        W85875  10.556  35.474   8.504
32980W        W85876  22.366   4.694   1.609
32981W        W85877  18.884  10.966   0.730
32982W        W85878   4.576  19.256   0.534
32983W        W85879  31.146  21.737   0.041
32984W        W85880  16.586  17.459   1.430
32985W        W85881   1.670  28.334   9.717
32986W        W85882  20.885   9.669   2.221
32987W        W85883  21.362  29.989   8.892
32988W        W85884  32.262   6.084   2.334
32989W        W85885  23.206  23.115   0.763
32990W        W85886  11.897  15.199   0.417
32991W        W85887  34.506  10.229   9.059
32992W        W85888  10.150   8.943  10.251
32993W        W85889  31.525  28.246   1.425
32994W        W85890  29.040  19.827   0.631
32995W        W85891  24.859   4.977   8.230
32996W        W85892  29.132  30.279   0.193
32997W        W85893   7.220   4.758   8.270
32998W        W85894  13.437  15.551  10.086
32999W        W85895  31.280   9.849   1.346
33000W        W85896   5.598  34.923   7.156
33001W        W85897  22.693   2.283   9.497
33002W        W85898   6.057  28.424   0.297
33003W        W85899  18.965  31.799   7.465
33004W        W85900  33.518  34.718   9.882
33005W        W85901  20.348   6.363   7.226
33006W        W85902  21.556   6.780   9.359
33007W        W85903  32.860  29.744   0.671
33008W        W85904  22.497  21.868   8.412
33009W        W85905  16.785  13.155   9.592
33010W        W85906  10.117  13.453   7.142
33011W        W85907  11.315  14.692   1.766
33012W        W85908  27.520   2.684   8.594
33013W        W85909  19.232  29.743   8.084
33014W        W85910   6.460   7.553   3.045
33015W        W85911  18.352  33.915   3.022
33016W        W85912  14.428  13.570   2.503
33017W        W85913   8.212  14.919   0.157
33018W        W85914  19.569  21.288   1.549
33019W        W85915   0.864  18.761   2.281
33020W        W85916  35.819   5.165   9.359
33021W        W85917  30.020  13.234   0.348
33022W        W85918   6.279  34.241   8.859
33023W        W85919  11.302  11.168   0.149
33024W        W85920  34.672   3.414   0.834
33025W        W85921   9.863  22.484   2.273
33026W        W85922   8.496   3.074   1.676
33027W        W85923   8.059  24.180   1.600
33028W        W85924  25.892   7.148   0.037
33029W        W85925  16.544  18.307   8.830
33030W        W85926  15.099  21.380   2.648
33031W        W85927  32.164  30.215   9.105
33032W        W85928  27.914  16.654   8.339
33033W        W85929   3.877  22.925   2.840
33034W        W85930   9.898  24.028   9.072
33035W        W85931   8.755   8.951   0.986
33036W        W85932   7.358  28.776   9.829
33037W        W85933  12.990   4.059   1.402
33038W        W85934  10.668  30.208   2.845
33039W        W85935  20.584  31.803   1.493
33040W        W85936   2.790  12.558   8.211
33041W        W85937  19.312   2.689   1.164
33042W        W85938   6.998  14.821   8.838
33043W        W85939  18.830  22.219   2.670
33044W        W85940  35.296   2.038   3.268
33045W        W85941  32.165  14.000  10.196
33046W        W85942  18.909   9.516   2.527
33047W        W85943   2.297   2.403   0.096
33048W        W85944  29.821   7.650   0.831
33049W        W85945  33.631  30.421  10.087
33050W        W85946  23.112  24.906   1.232
33051W        W85947  24.382  14.814   8.068
33052W        W85948  33.788  19.137   1.222
33053W        W85949  20.390  17.565   2.245
33054W        W85950  25.735  34.229   2.908
33055W        W85951  33.167  34.808   8.655
33056W        W85952  25.121  23.106   0.030
33057W        W85953  31.419  15.079   9.783
33058W        W85954  34.792  21.875   3.296
33059W        W85955  18.957   1.357   7.475
33060W        W85956  25.756  31.834   2.522
33061W        W85957   9.782  26.901   1.295
33062W        W85958  25.278  24.068   9.317
33063W        W85959  29.847   5.895   2.598
33064W        W85960  11.095  21.162   8.922
33065W        W85961   2.077  23.428   1.244
33066W        W85962  34.707  32.722   2.234
33067W        W85963  29.123  10.085   7.334
33068W        W85964  23.139   1.958   9.511
33069W        W85965   0.252  29.367   7.359
33070W        W85966  30.999   8.319   6.942
33071W        W85967  12.217   4.237  10.323
33072W        W85968  34.941   6.477   1.412
33073W        W85969  16.400  15.869   2.736
33074W        W85970   2.553  15.898   2.864
33075W        W85971  11.595  17.080  10.291
33076W        W85972  24.863  29.427   2.211
33077W        W85973  22.807  10.156   1.146
33078W        W85974   3.462   7.298   1.155
33079W        W85975  22.167  20.627   8.773
33080W        W85976  24.926  24.349   0.374
33081W        W85977   6.418  12.248   0.667
33082W        W85978   9.354  16.959   8.654
33083W        W85979  33.462   3.636   8.811
33084W        W85980  13.279   7.213   8.286
33085W        W85981  28.740  10.433   1.172
33086W        W85982  17.905   9.867   8.278
33087W        W85983  12.872  11.763   9.861
33088W        W85984   3.063   9.682   3.109
33089W        W85985  25.630  13.154   1.187
33090W        W85986  30.901   6.680   9.262
33091W        W85987   2.425  26.566   0.887
33092W        W85988  29.740  33.007   9.927
33093W        W85989  23.598   7.835   1.266
33094W        W85990   0.509  21.511   1.695
33095W        W85991  16.585  11.498   1.930
33096W        W85992   9.514  17.314   3.740
33097W        W85993  15.446  20.320   9.006
33098W        W85994   2.403  30.472   1.394
33099W        W85995   0.579  14.481   0.356
33100W        W85996  19.149  19.690   8.400
33101W        W85997  15.111  10.465   9.724
33102W        W85998  30.767  16.468   2.793
33103W        W85999  17.893  33.986   7.144
33104W        W86000  21.565  28.681   1.606
33105W        W86001  28.607  20.002   0.930
33106W        W86002   8.402   1.068   3.112
33107W        W86003  14.956  29.862   2.479
33108W        W86004  30.170  33.208   8.301
33109W        W86005  32.816  31.121   1.259
33110W        W86006   4.215   7.616   0.288
33111W        W86007   6.064  26.277   0.305
33112W        W86008  16.149   5.063   2.406
33113W        W86009   5.559  19.309   3.003
33114W        W86010  18.297  23.003   1.797
33115W        W86011  11.802  27.377   7.855
33116W        W86012  26.236  15.046   8.942
33117W        W86013  22.606   9.278   9.205
33118W        W86014  25.767   6.218   8.647
33119W        W86015  27.032   6.493   2.066
33120W        W86016   2.651  34.057   2.563
33121W        W86017   1.542  29.060   9.223
33122W        W86018  26.655  23.427   7.682
33123W        W86019  11.615  11.798   2.724
33124W        W86020  16.919   3.606   2.041
33125W        W86021  29.849  10.067   8.651
33126W        W86022   9.508   2.744   1.859
33127W        W86023  29.193   8.047   1.682
33128W        W86024  11.291   2.418   2.323
33129W        W86025   8.006  22.399  10.250
33130W        W86026   6.045  19.926   9.710
33131W        W86027   6.272  30.630  10.294
33132W        W86028  12.224   5.496   7.880
33133W        W86029  34.091  27.541   2.402
33134W        W86030   2.053  11.474   1.910
33135W        W86031  28.862  10.129   7.877
33136W        W86032  25.572  26.969   9.920
33137W        W86033  11.241   0.893   8.580
33138W        W86034  16.515  20.714   3.083
33139W        W86035  31.774  10.143   6.729
33140W        W86036  14.438  14.150   1.598
33141W        W86037  24.751   6.977   1.655
33142W        W86038   7.212  14.754   8.344
33143W        W86039  30.671   4.168   3.312
33144W        W86040  12.586  20.687   7.992
33145W        W86041   4.248  15.670   1.021
33146W        W86042  31.876   1.245   1.579
33147W        W86043  28.321  27.524   0.465
33148W        W86044  18.142  32.538   1.891
33149W        W86045  18.348  27.667   7.694
33150W        W86046  29.763  26.405   9.573
33151W        W86047   4.418  19.351   2.638
33152W        W86048  25.562  20.322   7.740
33153W        W86049  28.365  35.911   2.897
33154W        W86050  21.948  35.254   1.917
33155W        W86051  32.434   3.356   1.986
33156W        W86052  18.875  12.901   2.924
33157W        W86053  34.140  22.342   3.361
33158W        W86054  21.146   6.946   3.733
33159W        W86055  24.717  15.806  10.261
33160W        W86056   0.813  29.793  10.109
33161W        W86057  25.937  21.795   8.401
33162W        W86058  22.621  14.907   3.463
33163W        W86059   2.280   4.659   9.283
33164W        W86060  11.714  26.866   9.842
33165W        W86061  30.983  15.151   9.594
33166W        W86062   9.740   9.210   0.880
33167W        W86063  29.074   9.072   9.144
33168W        W86064  17.244  17.280  10.125
33169W        W86065   9.513  10.373   8.122
33170W        W86066   2.253  13.835   9.261
33171W        W86067  34.295   9.453   2.490
33172W        W86068  24.487  32.461   0.504
33173W        W86069  21.620  22.949   7.361
33174W        W86070   2.260   7.299   1.099
33175W        W86071  27.455  21.898   1.167
33176W        W86072  23.103   5.415   7.178
33177W        W86073  17.269  21.062   0.728
33178W        W86074  26.369  18.888   7.785
33179W        W86075  22.250   5.560   1.236
33180W        W86076   6.691  32.604   0.882
33181W        W86077   1.620  15.407   8.206
33182W        W86078  34.910  26.770   2.126
33183W        W86079   5.871  15.528   8.274
33184W        W86080   2.725   1.892   8.674
33185W        W86081  30.237  11.839   0.236
33186W        W86082  14.954  22.697   2.834
33187W        W86083   3.756  32.543   3.038
33188W        W86084   0.874  18.852   0.396
33189W        W86085  28.427  26.368   1.827
33190W        W86086   7.861  24.287   8.483
33191W        W86087  13.959   5.461   0.945
33192W        W86088  26.068  35.473   9.123
33193W        W86089  25.920  15.083   7.892
33194W        W86090  10.133  13.287   0.279
33195W        W86091  14.774  29.715   8.151
33196W        W86092   4.797  26.866   8.938
33197W        W86093  19.834   6.959   2.086
33198W        W86094   1.560  15.695   2.916
33199W        W86095  23.484  24.906   8.159
33200W        W86096   4.562  26.945   1.188
33201W        W86097  11.684   3.707  10.249
33202W        W86098   9.030  25.926   8.154
33203W        W86099  28.076  13.935   2.109
33204W        W86100  22.487  13.415   0.736
33205W        W86101   7.412  18.247   1.428
33206W        W86102   1.986  15.440  10.331
33207W        W86103  16.611  12.748   2.537
33208W        W86104  13.805  18.454   8.319
33209W        W86105   0.650   4.037   9.040
33210W        W86106  14.311  15.379   2.121
33211W        W86107   5.009   9.024   8.308
33212W        W86108  20.013  25.079   2.437
33213W        W86109  20.120   6.553   8.929
33214W        W86110  12.356   4.717   1.418
33215W        W86111  28.661   3.414   8.878
33216W        W86112   5.968  17.351   8.819
33217W        W86113   0.353  16.437   0.796
33218W        W86114  13.899   8.908   9.306
33219W        W86115   2.625  28.643   0.651
33220W        W86116  18.602  32.689   0.274
33221W        W86117  21.029  12.373   3.098
33222W        W86118  27.204  11.465   0.361
33223W        W86119  27.703   0.710   3.097
33224W        W86120  32.074   2.521   1.808
33225W        W86121  22.899  11.615   1.779
33226W        W86122   5.165  23.860   8.359
33227W        W86123  32.841   1.945   8.792
33228W        W86124  17.902  25.514  10.299
33229W        W86125  19.957  33.777   1.014
33230W        W86126  28.130  13.548   2.883
33231W        W86127  10.749   0.545   8.736
33232W        W86128   5.680  24.351   8.828
33233W        W86129   4.233   1.675   1.574
33234W        W86130  14.890   5.453   9.238
33235W        W86131  20.244  32.350   9.823
33236W        W86132  18.012  14.978   9.224
33237W        W86133  15.527  26.559   8.082
33238W        W86134  28.103   5.070   9.090
33239W        W86135   6.979  24.517   7.825
33240W        W86136  19.731  15.543   1.769
33241W        W86137   7.910  24.341   1.100
33242W        W86138  13.262  11.575   1.573
33243W        W86139  27.543   8.046   0.907
33244W        W86140   1.123   2.109   1.312
33245W        W86141  14.521  13.291  10.319
33246W        W86142  16.200  13.353   4.088
33247W        W86143   9.741   1.848   7.949
33248W        W86144  12.961  22.484   0.173
33249W        W86145  34.201   8.863   2.730
33250W        W86146  34.687  16.381   1.146
33251W        W86147  18.241  26.808   1.926
33252W        W86148  14.961  15.096   8.370
33253W        W86149  19.757  23.156   0.985
33254W        W86150  15.227  25.136   9.307
33255W        W86151  21.407  26.279   0.561
33256W        W86152   6.831  31.446   3.915
33257W        W86153  20.885   8.097   9.183
33258W        W86154  13.399   1.885   0.402
33259W        W86155  35.049  26.020   3.690
33260W        W86156   3.428  11.316   3.857
33261W        W86157  25.272  18.958   8.565
33262W        W86158  18.762  32.684   1.282
33263W        W86159   6.494  33.909   6.872
33264W        W86160  23.523  20.960   1.952
33265W        W86161  12.553  21.930   3.193
33266W        W86162  21.194  35.762   9.045
33267W        W86163  23.267  32.690   0.996
33268W        W86164   9.836  17.251   2.274
33269W        W86165  22.913  17.845   1.056
33270W        W86166  26.118  25.754   0.572
33271W        W86167   5.188   1.025   2.262
33272W        W86168   6.487  26.157   1.483
33273W        W86169   5.190   5.062   7.655
33274W        W86170  15.361  33.096   0.545
33275W        W86171  14.266  18.073   1.299
33276W        W86172  24.623  20.680   7.703
33277W        W86173   7.547  26.617   1.185
33278W        W86174  26.646  28.762   2.607
33279W        W86175  21.683  34.534   1.590
33280W        W86176  20.219   2.869   9.178
33281W        W86177   1.229  28.413   1.121
33282W        W86178  27.593  21.488   0.822
33283W        W86179   2.491   9.054   8.471
33284W        W86180  12.377  16.177   8.571
33285W        W86181  22.327   6.944   9.866
33286W        W86182  18.770  14.546   7.783
33287W        W86183  26.713  26.531   0.916
33288W        W86184  31.351   5.658  10.218
33289W        W86185  33.014  24.181   8.094
33290W        W86186   0.052  28.195   0.372
33291W        W86187   0.055  27.132   2.475
33292W        W86188  29.231   7.859   0.834
33293W        W86189  11.498   4.972   1.194
33294W        W86190  32.044  25.468   1.767
33295W        W86191  33.196   0.731   8.903
33296W        W86192  33.347  34.086   0.800
33297W        W86193  16.794   0.717   7.001
33298W        W86194   8.144  12.879   0.566
33299W        W86195  34.836  29.770  10.311
33300W        W86196   5.455  32.924   8.357
33301W        W86197  33.823  10.856   0.195
33302W        W86198  20.218  28.182   8.428
33303W        W86199   3.371  22.202   0.575
33304W        W86200  24.209   9.622   1.899
33305W        W86201  32.047  19.369   1.663
33306W        W86202  14.826  31.439  10.288
33307W        W86203  25.765   6.828   2.311
33308W        W86204   8.626  15.092   0.594
33309W        W86205  33.389   2.831   3.248
33310W        W86206   6.216  12.209   9.547
33311W        W86207  20.560  13.396   2.556
33312W        W86208   2.887  10.333   1.330
33313W        W86209  26.390  29.380   7.120
33314W        W86210  30.239   8.558   0.647
33315W        W86211  11.799  12.639   8.741
33316W        W86212  27.718   2.277   3.937
33317W        W86213  13.259   1.399   0.238
33318W        W86214  31.658  28.071  10.273
33319W        W86215   8.645  31.447   9.023
33320W        W86216   4.281  33.206   9.038
33321W        W86217   9.203  11.800   1.749
33322W        W86218  14.964   1.269   8.167
33323W        W86219   0.258  21.685   9.343
33324W        W86220  17.081  23.962   2.873
33325W        W86221  24.045  17.695   8.698
33326W        W86222   2.213  22.256   7.602
33327W        W86223  10.242   7.876   1.192
33328W        W86224  31.989  12.563   0.991
33329W        W86225   3.564  30.527   0.523
33330W        W86226   7.234  27.161   9.024
33331W        W86227   5.966  35.873   0.623
33332W        W86228  34.090  23.964   3.870
33333W        W86229  21.629  17.557   3.940
33334W        W86230   3.455  11.600   1.324
33335W        W86231  15.514  25.427   9.566
33336W        W86232  22.922  14.465   9.667
33337W        W86233  30.610  33.497   1.795
33338W        W86234   3.986  20.950   8.452
33339W        W86235   4.394  11.586   1.419
33340W        W86236  14.068  25.739   9.537
33341W        W86237  23.416  19.914   2.351
33342W        W86238   9.301  29.002   2.323
33343W        W86239  13.240  28.491   8.539
33344W        W86240  34.462  28.600   8.955
33345W        W86241  28.147  11.920   8.465
33346W        W86242  30.645  25.719   2.371
33347W        W86243  20.122  28.317   7.527
33348W        W86244   6.708  28.428   8.836
33349W        W86245  26.559   3.324   7.914
33350W        W86246  32.246  24.307   2.959
33351W        W86247  14.003   6.224   2.207
33352W        W86248  16.594   0.233   8.809
33353W        W86249  26.458  25.064   0.619
33354W        W86250  15.804  12.166   8.137
33355W        W86251  26.374   5.737   7.476
33356W        W86252   8.276   4.787   0.531
33357W        W86253   0.387  13.176   8.798
33358W        W86254   3.318   7.469   8.144
33359W        W86255  32.338  13.564   7.258
33360W        W86256  34.858  13.486  10.287
33361W        W86257  13.636  26.418   2.225
33362W        W86258  23.583  33.475   9.261
33363W        W86259  15.455  10.266   7.794
33364W        W86260   2.891   2.763   8.574
33365W        W86261  16.176  35.375   2.240
33366W        W86262  24.915  29.869   8.322
33367W        W86263  27.158  12.680   2.748
33368W        W86264  33.530  25.089   1.163
33369W        W86265  14.493  16.081  10.063
33370W        W86266  15.165   5.487   0.608
33371W        W86267   1.730   3.319   2.095
33372W        W86268  17.844  29.236   1.006
33373W        W86269  13.862  10.133   1.229
33374W        W86270  26.809  32.391   3.220
33375W        W86271  35.527  31.752   3.049
33376W        W86272   0.665  33.351   1.006
33377W        W86273  11.804  30.901   1.676
33378W        W86274   5.631  22.178   8.590
33379W        W86275  19.404   4.195   2.834
33380W        W86276  16.469   8.204   8.326
33381W        W86277   3.814   3.161   8.570
33382W        W86278  11.574  13.876   9.098
33383W        W86279  14.827  25.249   9.047
33384W        W86280  17.813  31.624   0.106
33385W        W86281  14.773  28.759   8.693
33386W        W86282  12.103  12.161   1.955
33387W        W86283   8.087  15.438  10.269
33388W        W86284  25.042  25.605   9.455
33389W        W86285   6.074  15.630   7.805
33390W        W86286  22.300  13.598   1.208
33391W        W86287  29.853  32.770   9.036
33392W        W86288  21.467  12.111   0.988
33393W        W86289   9.303  18.336   8.156
33394W        W86290  11.977   7.083   1.183
33395W        W86291  15.718   0.730   9.943
33396W        W86292   1.629  21.500   9.052
33397W        W86293  20.257  29.024   3.243
33398W        W86294  11.917  12.795   1.326
33399W        W86295  21.446   3.002   2.353
33400W        W86296  23.914   3.676   9.547
33401W        W86297  10.148  17.633   0.746
33402W        W86298  11.074  17.667   8.536
33403W        W86299  32.717   1.812   9.889
33404W        W86300  21.911  26.572   8.486
33405W        W86301  13.023  22.649   8.493
33406W        W86302  15.402  35.561   2.638
33407W        W86303  12.462  24.621   2.009
33408W        W86304  11.262   2.163   0.128
33409W        W86305  10.989   5.673   8.976
33410W        W86306  24.481   9.149   0.711
33411W        W86307   5.723  15.654   1.639
33412W        W86308  13.136   8.265   2.658
33413W        W86309  12.082   6.021   8.168
33414W        W86310  12.132  22.659   8.270
33415W        W86311  13.362   7.447   0.925
33416W        W86312   9.387   0.111   9.533
33417W        W86313   9.826   9.481   2.200
33418W        W86314  29.186   8.930   2.562
33419W        W86315  34.017   2.323   3.083
33420W        W86316   0.740   5.289   9.653
33421W        W86317  32.819  32.877   1.394
33422W        W86318  20.796  31.652   3.325
33423W        W86319  11.560  21.974   9.281
33424W        W86320  23.154  30.896   8.172
33425W        W86321   1.232   8.996   7.878
33426W        W86322   5.843   3.145   9.520
33427W        W86323  22.864  15.767   9.504
33428W        W86324  29.696  21.644   2.773
33429W        W86325  32.617   8.659   8.197
33430W        W86326  10.474  23.668   1.836
33431W        W86327  33.091  19.991   7.839
33432W        W86328   7.344  25.790   0.801
33433W        W86329  32.172  12.323   8.119
33434W        W86330  16.149   4.590   2.181
33435W        W86331  28.399  34.413   1.619
33436W        W86332  21.361  25.107   1.301
33437W        W86333  14.588  34.136   0.786
33438W        W86334  19.341  19.197   1.007
33439W        W86335  35.541  26.300   0.904
33440W        W86336  30.790  29.379   8.270
33441W        W86337  35.180   1.041   9.794
33442W        W86338  11.900  10.064   8.945
33443W        W86339  29.398  27.539   2.791
33444W        W86340  14.749  32.655   2.291
33445W        W86341  28.814  22.989   9.607
33446W        W86342   5.961  19.729   1.286
33447W        W86343  31.774  35.498  10.005
33448W        W86344  25.417   1.288   3.734
33449W        W86345  26.199  11.821   2.688
33450W        W86346  28.145  24.370   1.956
33451W        W86347   1.512  25.599   1.404
33452W        W86348  24.134  10.713  10.206
33453W        W86349  17.579  15.634   0.148
33454W        W86350   3.594  18.641   2.105
33455W        W86351  18.044  24.094   7.954
33456W        W86352   3.929   1.555   9.507
33457W        W86353   6.135  10.252   9.344
33458W        W86354  18.473  20.066   3.127
33459W        W86355  25.696   3.802   1.964
33460W        W86356   6.536  32.554   8.912
33461W        W86357   5.988   8.903   1.016
33462W        W86358  32.279   6.459   1.317
33463W        W86359   9.575   0.192   1.091
33464W        W86360  35.264  15.049   9.161
33465W        W86361  27.894   7.446   0.183
33466W        W86362  32.339   5.183   2.443
33467W        W86363  17.749  14.477   8.601
33468W        W86364   7.435  14.942   1.274
33469W        W86365  21.605  17.130   0.333
33470W        W86366  34.015  10.085   1.381
33471W        W86367  32.767  10.024   3.543
33472W        W86368   1.114  23.295   2.279
33473W        W86369  18.248  22.790   0.013
33474W        W86370   8.026   2.468   7.488
33475W        W86371  13.426   7.336   2.660
33476W        W86372  26.007  19.083   8.197
33477W        W86373  30.802   6.043   7.762
33478W        W86374  26.967  28.032   0.074
33479W        W86375  21.806  32.247   7.643
33480W        W86376  20.139  19.870   1.462
33481W        W86377  17.205  12.549   3.328
33482W        W86378  31.309  31.196   1.394
33483W        W86379  15.102  29.263   1.643
33484W        W86380   4.386   6.653   6.794
33485W        W86381  15.053  34.429  10.069
33486W        W86382  34.137  22.756   1.454
33487W        W86383  14.240  15.312   2.773
33488W        W86384  20.661  12.438   8.207
33489W        W86385  14.817  19.541   8.383
33490W        W86386  12.953  24.645   2.480
33491W        W86387  10.275  16.736   9.246
33492W        W86388  18.101   4.207   3.406
33493W        W86389  26.693  10.171   1.151
33494W        W86390  29.570  32.156   8.200
33495W        W86391  30.736  24.574   2.424
33496W        W86392  29.213   6.988   9.287
33497W        W86393  16.149  34.290  10.034
33498W        W86394   6.012  15.019   9.885
33499W        W86395   9.010  11.703   2.813
33500W        W86396   3.414  28.201  10.032
33501W        W86397  24.551  13.714   2.864
33502W        W86398  26.535   4.842   2.454
33503W        W86399  31.342  22.182   1.043
33504W        W86400  17.973  33.091   3.585
33505W        W86401  21.160  14.236   7.160
33506W        W86402  20.112  34.234   0.464
33507W        W86403   0.168  33.189   1.289
33508W        W86404  17.148  14.286   2.036
33509W        W86405   6.874   1.099   2.545
33510W        W86406   7.167  35.854   9.814
33511W        W86407  32.784  33.304   2.548
33512W        W86408   3.182  26.414   9.325
33513W        W86409   6.795   7.872   7.950
33514W        W86410  32.481  34.430   9.793
33515W        W86411  30.595  22.120   0.239
33516W        W86412  20.389  13.470   8.495
33517W        W86413  10.847  28.852   1.129
33518W        W86414   3.885  10.490   9.678
33519W        W86415  17.193  14.489   9.475
33520W        W86416  22.812   3.745   1.440
33521W        W86417  13.192  10.576   8.480
33522W        W86418  19.942   7.896   8.868
33523W        W86419  20.580  27.296   3.627
33524W        W86420  26.608  28.914   0.987
33525W        W86421   7.982   0.852   9.616
33526W        W86422   3.050  26.080   8.010
33527W        W86423   4.595  20.123   0.253
33528W        W86424  21.059  30.642   2.039
33529W        W86425  22.172  33.607   0.712
33530W        W86426  15.881   4.294   0.468
33531W        W86427  33.846  12.868   2.208
33532W        W86428  19.685  28.536   9.950
33533W        W86429   6.922  10.697   8.588
33534W        W86430  26.797  25.516   2.343
33535W        W86431  30.605  15.922   8.683
33536W        W86432  10.711   4.923   7.931
33537W        W86433  18.911  34.695   1.691
33538W        W86434   0.613  29.498   3.142
33539W        W86435  33.196  28.922   9.669
33540W        W86436  34.215   7.231   7.816
33541W        W86437  26.676   3.612  10.101
33542W        W86438  17.866   8.290   8.861
33543W        W86439  17.064  23.179   8.503
33544W        W86440  26.347  34.272   7.933
33545W        W86441   7.199  18.435   0.143
33546W        W86442   3.726  32.926  10.193
33547W        W86443  14.204  29.609   0.714
33548W        W86444   0.399  13.161   9.425
33549W        W86445  27.530   3.650   1.062
33550W        W86446   0.111  14.947   3.711
33551W        W86447   9.795  14.879  10.118
33552W        W86448  13.802  24.074   7.216
33553W        W86449  12.147  25.240   8.217
33554W        W86450  29.112  14.930   8.687
33555W        W86451   4.441   1.341   1.993
33556W        W86452  23.571  18.793   9.171
33557W        W86453  26.691   4.438   8.837
33558W        W86454  20.894  26.091   9.430
33559W        W86455  28.780  26.997   2.226
33560W        W86456  33.811  14.002   0.400
33561W        W86457  12.054   5.892   9.793
33562W        W86458  29.254  23.317   7.071
33563W        W86459  14.734  14.642   1.590
33564W        W86460   5.282   3.011   8.547
33565W        W86461   2.480   0.546   0.984
33566W        W86462  31.128  15.667   1.394
33567W        W86463  29.676   0.735   9.189
33568W        W86464  10.970   6.459   8.425
33569W        W86465  22.327  29.368   9.846
33570W        W86466  21.901  10.505  10.004
33571W        W86467  20.755   0.352   9.716
33572W        W86468  24.608   0.135   1.255
33573W        W86469  10.720  15.229  10.195
33574W        W86470  22.174  24.986   1.959
33575W        W86471  21.240  31.323   7.640
33576W        W86472  11.554  16.727   7.989
33577W        W86473  22.383  21.135   1.650
33578W        W86474   8.461  24.169  10.080
33579W        W86475  18.865   3.867   2.019
33580W        W86476  23.023   2.352   1.100
33581W        W86477  23.153  22.997   1.232
33582W        W86478  23.514   0.861   3.190
33583W        W86479  32.051   1.755   0.807
33584W        W86480  22.393  17.467   8.430
33585W        W86481  12.606   2.262   1.204
33586W        W86482   0.898  18.273   9.072
33587W        W86483  21.591  34.800   2.888
33588W        W86484  34.210   6.121   0.061
33589W        W86485   7.084   5.990   8.621
33590W        W86486  23.875  29.856   1.426
33591W        W86487   0.192   2.190   1.258
33592W        W86488  16.587  17.832   9.415
33593W        W86489  12.209  21.294   0.387
33594W        W86490   7.700  11.113   2.453
33595W        W86491   9.153  33.105   9.456
33596W        W86492   6.601  20.083   7.703
33597W        W86493   0.333  27.560   3.278
33598W        W86494  20.211  13.439  10.243
33599W        W86495  30.238  30.391   2.778
33600W        W86496   4.166  31.195   2.801
33601W        W86497  31.627  17.960   8.027
33602W        W86498   7.964  20.461   8.855
33603W        W86499  24.209  33.232   0.728
33604W        W86500  13.715   8.538   0.279
33605W        W86501  17.188  18.739   0.048
33606W        W86502  12.950  12.189   1.407
33607W        W86503  30.794  25.180   8.381
33608W        W86504   9.081   1.244   8.674
33609W        W86505  23.941  19.421   9.622
33610W        W86506  11.905  21.461   7.598
33611W        W86507  25.109  30.609   8.535
33612W        W86508   0.445  10.114   0.942
33613W        W86509  15.156  26.588   3.037
33614W        W86510  25.592  29.291   1.278
33615W        W86511  23.747  26.103   8.011
33616W        W86512   2.365   2.266   8.719
33617W        W86513  31.464  23.418   9.845
33618W        W86514  16.060  20.105   7.970
33619W        W86515   7.243   4.207   3.081
33620W        W86516   6.325  13.635   2.019
33621W        W86517   1.021  20.615   2.343
33622W        W86518   4.267  34.647   1.700
33623W        W86519  22.869   5.562   8.156
33624W        W86520  32.522  34.813   2.037
33625W        W86521  28.036  33.238   1.661
33626W        W86522  10.114  34.093   9.263
33627W        W86523   2.149  17.214   2.529
33628W        W86524   5.692  10.280   7.586
33629W        W86525  21.403  35.793   1.268
33630W        W86526  21.540  35.104   0.864
33631W        W86527   9.584  25.290   9.736
33632W        W86528   1.327  24.490   9.783
33633W        W86529   7.618  34.717   0.241
33634W        W86530  18.707  10.799   8.482
33635W        W86531  31.209  26.710   7.729
33636W        W86532  23.604   7.963   9.331
33637W        W86533   8.065   6.955   8.448
33638W        W86534  28.529   5.214   8.104
33639W        W86535   0.907  19.154   8.799
33640W        W86536   1.900   0.644  10.101
33641W        W86537   5.530  26.837   9.599
33642W        W86538  31.634  26.970   0.649
33643W        W86539   0.108  11.139   9.912
33644W        W86540  31.341  28.979   2.694
33645W        W86541  26.651   0.468   9.524
33646W        W86542  24.320   5.350   9.211
33647W        W86543  35.913  33.922   3.110
33648W        W86544  15.414  12.920   0.960
33649W        W86545  34.447   0.927   8.257
33650W        W86546  31.655  22.551   7.594
33651W        W86547  11.666  12.953   0.604
33652W        W86548  22.503  12.757   2.389
33653W        W86549  14.199  17.961   9.715
33654W        W86550  30.373  13.149   8.738
33655W        W86551  28.192  34.885   0.701
33656W        W86552  31.817  16.274   8.048
33657W        W86553  26.428  13.810   9.523
33658W        W86554   8.216  27.666   1.790
33659W        W86555   1.606   4.261   7.108
33660W        W86556  16.754  31.224   1.535
33661W        W86557   8.699  10.961   9.742
33662W        W86558  25.880   9.293  10.148
33663W        W86559  34.285   2.952   1.812
33664W        W86560  12.456  34.915   8.538
33665W        W86561  31.372  32.580   8.685
33666W        W86562  29.209  21.678   8.329
33667W        W86563   7.816  28.132   0.571
33668W        W86564  21.444  10.199   2.538
33669W        W86565   8.953  19.988   8.145
33670W        W86566   4.950  29.579   1.360
33671W        W86567  14.698  34.383   0.124
33672W        W86568  23.658   2.260   8.088
33673W        W86569  28.339   4.183   7.789
33674W        W86570  13.731   8.714   1.058
33675W        W86571  12.446  32.929  10.292
33676W        W86572   9.213   1.143   1.523
33677W        W86573  10.714  34.230   2.842
33678W        W86574  27.376   2.510   9.056
33679W        W86575  34.454  33.735   2.535
33680W        W86576  35.980  24.014   7.868
33681W        W86577  23.532   7.797   7.992
33682W        W86578  35.373  31.032   4.033
33683W        W86579  24.489   1.803   2.921
33684W        W86580  25.348  25.867   1.696
33685W        W86581  20.512   3.069   1.117
33686W        W86582   5.614  15.978   8.122
33687W        W86583   1.557  19.081   9.388
33688W        W86584  23.722  32.224  10.271
33689W        W86585   6.851  28.577   0.817
33690W        W86586   0.684  16.886   3.529
33691W        W86587  26.448   2.814   3.783
33692W        W86588  29.481  10.118   3.175
33693W        W86589   0.301  35.734   7.352
33694W        W86590  34.951  32.998   7.923
33695W        W86591  33.169  17.176   8.203
33696W        W86592  20.769   7.673   9.810
33697W        W86593   3.175   6.884   9.252
33698W        W86594   1.172  26.298   1.105
33699W        W86595  19.547   8.907   9.761
33700W        W86596  12.221  18.873   2.994
33701W        W86597   0.083  16.220   3.437
33702W        W86598  35.337  27.909   8.519
33703W        W86599   9.947  15.468   3.278
33704W        W86600   8.779  32.722   9.737
33705W        W86601  14.636  10.393   8.140
33706W        W86602   5.719  23.850   8.414
33707W        W86603  20.693  13.667   1.987
33708W        W86604  13.941  16.788   9.050
33709W        W86605  21.349  21.791  10.284
33710W        W86606  21.159  14.982   1.364
33711W        W86607   0.178   1.899   7.807
33712W        W86608   1.014  27.349   3.584
33713W        W86609  20.850  13.852   0.618
33714W        W86610  10.981   1.545   7.549
33715W        W86611  15.451  10.350   2.758
33716W        W86612   4.233  24.063   7.582
33717W        W86613   1.107  34.244   1.792
33718W        W86614  20.913  33.473   1.268
33719W        W86615  10.327   1.747   1.663
33720W        W86616  18.348  26.811   8.057
33721W        W86617  28.169  32.378   0.882
33722W        W86618  16.955   3.700   0.430
33723W        W86619   7.612  29.419   9.460
33724W        W86620  32.971   3.835   7.717
33725W        W86621  29.510  23.924   1.908
33726W        W86622  26.230  18.506   0.397
33727W        W86623  12.026   7.986   1.847
33728W        W86624   5.598  23.364   7.825
33729W        W86625  13.649  21.596   9.490
33730W        W86626  10.829  10.471  10.243
33731W        W86627  13.499   8.881   1.502
33732W        W86628  35.258  11.054   0.558
33733W        W86629  25.062  30.811   8.081
33734W        W86630  28.357  17.779   8.394
33735W        W86631  32.661  24.721   2.872
33736W        W86632  22.089  22.529   9.517
33737W        W86633  29.720  35.874   1.961
33738W        W86634  16.536  30.823   8.259
33739W        W86635   0.969   7.640   2.507
33740W        W86636  18.529   6.332   0.039
33741W        W86637  33.335  35.375   7.005
33742W        W86638   9.252  34.009   8.691
33743W        W86639   4.067   7.096   3.174
33744W        W86640   5.566  35.932   2.495
33745W        W86641  28.942  20.604   1.830
33746W        W86642  19.773  20.603   3.264
33747W        W86643   6.207   1.173   9.825
33748W        W86644   9.581   2.303   9.617
33749W        W86645  12.003  34.377   0.776
33750W        W86646  16.108  32.647   1.096
33751W        W86647  24.801  32.228   1.486
33752W        W86648  16.320   9.977   8.112
33753W        W86649   9.222   4.313   9.736
33754W        W86650  24.619  16.226   9.429
33755W        W86651   6.641  22.269   8.713
33756W        W86652  29.140  31.613   0.356
33757W        W86653  25.294  24.419  10.266
33758W        W86654  11.987  16.156   9.215
33759W        W86655  17.950  12.951   1.810
33760W        W86656  34.209  28.193   8.464
33761W        W86657  22.313  25.678   0.459
33762W        W86658  34.919  33.627   3.251
33763W        W86659   9.589  30.484   6.941
33764W        W86660  27.276   7.043   1.417
33765W        W86661  12.517  24.068   8.573
33766W        W86662  28.652   1.944   3.591
33767W        W86663  29.212   9.791   7.937
33768W        W86664  34.191  24.783   1.480
33769W        W86665  18.763  26.796   2.131
33770W        W86666  35.024  29.972   7.766
33771W        W86667  16.525  34.427   9.662
33772W        W86668   4.724  18.174   8.145
33773W        W86669  35.754  15.800  10.071
33774W        W86670  10.856  22.125   2.071
33775W        W86671  25.317   6.147   8.981
33776W        W86672  12.966   9.362   9.461
33777W        W86673  27.639  12.197   8.478
33778W        W86674  23.934  34.343   0.945
33779W        W86675  16.298  27.893  10.324
33780W        W86676  18.423   1.276   0.960
33781W        W86677   3.273  33.339   9.449
33782W        W86678  31.084  33.092   0.080
33783W        W86679  15.469   0.468   2.197
33784W        W86680   3.730   3.429   7.728
33785W        W86681   9.140  22.522   1.213
33786W        W86682  16.980  25.683   3.664
33787W        W86683   3.770   7.177   8.202
33788W        W86684  27.022  33.251   1.915
33789W        W86685   1.198   6.752   9.354
33790W        W86686  14.752   2.431   2.420
33791W        W86687  16.255  31.026   3.239
33792W        W86688   8.063  12.345   2.211
33793W        W86689  31.857   8.681   0.761
33794W        W86690  17.074   1.887   7.267
33795W        W86691  22.161   6.826   7.221
33796W        W86692  12.208  33.403   0.072
33797W        W86693  31.599  20.715   1.436
33798W        W86694  18.276   8.581   0.636
33799W        W86695  25.521   5.277   2.102
33800W        W86696   5.624  24.775   7.991
33801W        W86697  33.438  22.746   9.896
33802W        W86698  10.027  10.317   9.405
33803W        W86699  17.554  33.588   2.585
33804W        W86700   4.802   6.610   8.514
33805W        W86701  22.531  23.674   8.640
33806W        W86702   8.426  12.374   0.660
33807W        W86703  18.199  17.101   1.426
33808W        W86704  25.039   9.704   0.250
33809W        W86705  20.154  16.172   9.790
33810W        W86706  31.005   0.336   2.123
33811W        W86707  29.638   9.816   9.141
33812W        W86708  23.878  13.440   9.504
33813W        W86709  13.916   6.982   2.493
33814W        W86710   9.652  26.523   0.539
33815W        W86711  17.029  14.065   2.559
33816W        W86712  17.679  30.893   9.881
33817W        W86713  32.837  32.389   1.602
33818W        W86714  27.966  29.417   2.309
33819W        W86715   2.697  28.231   9.876
33820W        W86716  21.419  32.837   9.564
33821W        W86717  11.873  15.518   7.652
33822W        W86718  34.865   1.920   9.990
33823W        W86719  11.309  14.496   2.272
33824W        W86720  23.418   4.289   0.487
33825W        W86721   4.924  33.237   2.083
33826W        W86722  18.428  22.914   8.192
33827W        W86723  30.274  25.626   1.621
33828W        W86724  24.573  10.575   2.705
33829W        W86725   1.798  28.244  10.254
33830W        W86726  11.381  26.794  10.237
33831W        W86727  16.982   0.555   1.599
33832W        W86728   7.244   9.182  10.026
33833W        W86729  11.246   0.554   8.934
33834W        W86730   7.602  25.571   7.487
33835W        W86731  23.941  24.839   2.830
33836W        W86732   2.852  21.282   3.566
33837W        W86733   7.823  25.427   8.473
33838W        W86734   6.764  13.806   7.985
33839W        W86735   8.463  20.858   0.632
33840W        W86736  25.043  29.722   1.820
33841W        W86737  10.878  21.589   2.039
33842W        W86738  12.730   2.058   9.459
33843W        W86739  17.321  28.922   8.314
33844W        W86740  16.269  35.972   9.114
33845W        W86741  28.950  13.254   0.171
33846W        W86742  26.111  15.144   3.563
33847W        W86743  25.260   1.311   2.090
33848W        W86744  27.412  24.888   1.974
33849W        W86745   0.975  18.213   3.363
33850W        W86746  10.222  25.249   7.755
33851W        W86747   0.183  15.786  10.280
33852W        W86748  32.825   4.950   8.628
33853W        W86749  14.305  16.642   2.783
33854W        W86750   4.989   7.059   8.303
33855W        W86751  26.980   3.791   3.598
33856W        W86752  20.013  29.778   2.048
33857W        W86753  35.724  30.396   1.478
33858W        W86754  26.414  18.273   0.854
33859W        W86755   6.099  35.426   0.822
33860W        W86756  12.576  21.130  10.316
33861W        W86757  32.867  23.667   8.147
33862W        W86758   0.681  22.036   3.051
33863W        W86759  20.007  23.803   9.361
33864W        W86760  12.830  13.523   2.217
33865W        W86761  20.280   5.931  10.104
33866W        W86762  22.805  33.466   2.549
33867W        W86763   9.039   9.858   1.010
33868W        W86764  23.081  16.091   2.490
33869W        W86765  35.392   2.700   8.885
33870W        W86766  30.814  12.030   9.921
33871W        W86767  22.719  12.914   0.770
33872W        W86768  10.972  16.581   3.122
33873W        W86769   6.591  17.099   2.325
33874W        W86770  19.958   4.859   2.404
33875W        W86771  12.332  17.423   1.635
33876W        W86772   5.542  14.277   8.292
33877W        W86773  27.469   9.866   9.400
33878W        W86774  14.439  33.965   8.243
33879W        W86775  25.644  23.137   1.746
33880W        W86776  18.244   2.830   3.298
33881W        W86777  21.730  25.123   9.449
33882W        W86778  18.029   3.488   9.286
33883W        W86779  23.279  31.155   8.810
33884W        W86780  14.234  19.698   9.133
33885W        W86781  18.709  11.761   9.660
33886W        W86782  24.706  14.542   0.443
33887W        W86783  11.707  26.712   8.528
33888W        W86784  21.957  19.637   0.627
33889W        W86785  23.583  18.578   0.717
33890W        W86786   2.272  33.639   2.047
33891W        W86787  23.866  24.580   9.564
33892W        W86788  18.941  13.131   2.432
33893W        W86789   6.169  23.020   7.887
33894W        W86790   9.102  24.911   2.151
33895W        W86791  31.137  32.209   8.956
33896W        W86792  21.302  14.685   2.815
33897W        W86793   1.150  12.479   1.460
33898W        W86794   5.533  26.487   2.941
33899W        W86795  30.662  24.095   1.237
33900W        W86796  20.849   2.865   2.771
33901W        W86797   4.013  15.365   8.341
33902W        W86798  24.024  14.809   2.625
33903W        W86799  32.486  16.900  10.082
33904W        W86800  16.531  32.374   8.139
33905W        W86801  20.857  20.735   8.814
33906W        W86802  27.783  23.271   2.717
33907W        W86803   5.815  15.796   1.087
33908W        W86804  29.998   7.784   2.909
33909W        W86805  27.359  20.651   9.420
33910W        W86806  30.452   4.787   8.274
33911W        W86807  25.274   1.202   0.751
33912W        W86808  13.546  15.114   1.080
33913W        W86809  35.813  29.736   1.158
33914W        W86810   5.054   1.635   7.695
33915W        W86811  17.545   9.947   1.868
33916W        W86812  25.939   6.916   2.966
33917W        W86813  19.005   0.409   2.079
33918W        W86814   7.055  28.148   0.161
33919W        W86815  30.936  16.232   9.358
33920W        W86816   0.756   8.687   0.302
33921W        W86817  12.251  33.190   3.004
33922W        W86818  20.522  25.350   1.197
33923W        W86819  21.904  24.924   8.917
33924W        W86820  20.625  29.372   3.445
33925W        W86821  16.001  22.438   7.824
33926W        W86822  23.790  28.304   9.877
33927W        W86823  30.453  11.012   2.659
33928W        W86824  20.304   9.190   9.500
33929W        W86825  15.713   6.448   0.088
33930W        W86826  24.600  25.908   9.357
33931W        W86827   1.248  28.823   2.609
33932W        W86828  12.392  13.281   0.285
33933W        W86829  11.801  14.415   1.845
33934W        W86830  19.582   8.674   0.587
33935W        W86831  14.150  14.381   7.564
33936W        W86832   3.653  28.941   8.766
33937W        W86833  31.148  29.616   9.827
33938W        W86834  33.128  17.560   9.491
33939W        W86835  34.996  22.835   4.252
33940W        W86836  11.757  30.666   9.754
33941W        W86837   0.538  28.474   7.804
33942W        W86838   8.832  22.249   9.604
33943W        W86839  13.656   5.664   1.295
33944W        W86840   8.393  10.972   0.553
33945W        W86841  18.428   8.794   2.433
33946W        W86842   2.047  29.181   2.122
33947W        W86843  12.240   9.584   1.478
33948W        W86844   3.343  26.771   2.963
33949W        W86845  32.445  35.051   0.855
33950W        W86846  17.046   4.502   9.887
33951W        W86847  16.946  18.595   8.735
33952W        W86848  35.182  27.191   7.144
33953W        W86849  35.800   6.237   1.869
33954W        W86850  20.556  26.420   0.328
33955W        W86851   1.937  30.156   2.305
33956W        W86852   4.865   3.268   0.339
33957W        W86853  31.792  27.407   0.482
33958W        W86854  11.057  23.362   9.592
33959W        W86855  17.573   2.517   0.565
33960W        W86856  29.887  34.044   7.299
33961W        W86857  12.099   7.015   0.289
33962W        W86858  24.179  35.407   1.211
33963W        W86859   2.690  32.418   2.104
33964W        W86860  26.099  10.437   8.361
33965W        W86861  28.138  24.862   9.069
33966W        W86862   1.855  23.796  10.297
33967W        W86863  29.109   3.782   9.518
33968W        W86864  23.280  24.250   8.962
33969W        W86865  22.287  32.814   3.141
33970W        W86866  28.554  20.185   9.118
33971W        W86867  11.891  31.847   0.313
33972W        W86868  13.163  29.860   0.715
33973W        W86869   8.338   8.678   8.044
33974W        W86870   0.205  16.747   0.315
33975W        W86871  19.065   7.742   9.381
33976W        W86872  18.967  22.817   9.527
33977W        W86873  28.241  12.860   8.128
33978W        W86874  35.260  19.681   0.270
33979W        W86875  27.005  34.063   0.251
33980W        W86876  15.823  15.045  10.250
33981W        W86877  28.467   8.074   1.502
33982W        W86878  27.217  22.332   9.840
33983W        W86879  30.913   8.881   2.056
33984W        W86880  20.562   9.242   0.537
33985W        W86881  27.557   5.168   0.090
33986W        W86882  35.395  21.664   2.865
33987W        W86883  26.577   7.790   0.181
33988W        W86884  25.399  21.222   8.218
33989W        W86885  31.664  32.104   1.326
33990W        W86886  10.889  10.790   7.872
33991W        W86887   8.970  10.090  10.222
33992W        W86888  33.459  13.763   9.806
33993W        W86889  21.452  18.575   9.069
33994W        W86890  27.763  29.070  10.133
33995W        W86891  21.645  35.161   3.248
33996W        W86892   0.774  12.176   2.160
33997W        W86893   1.785  18.622   1.940
33998W        W86894  18.197  11.938   1.686
33999W        W86895   1.874  20.157   8.847
34000W        W86896  10.883   5.586   1.217
34001W        W86897   2.867  13.835   3.618
34002W        W86898   6.872  28.789   0.255
34003W        W86899  23.874  13.890   9.767
34004W        W86900  31.679  12.068   8.277
34005W        W86901  11.553  35.025  10.286
34006W        W86902   1.484  10.877   8.326
34007W        W86903  20.610   3.086   2.323
34008W        W86904  33.356  30.531   0.190
34009W        W86905  10.870  29.075   7.918
34010W        W86906  29.648  16.478   1.008
34011W        W86907   3.806   8.832   9.783
34012W        W86908  22.097  34.782  10.325
34013W        W86909   9.573  11.851   0.077
34014W        W86910   0.372  10.435   1.790
34015W        W86911  18.185  10.698   8.486
34016W        W86912  29.603  13.680   8.066
34017W        W86913  24.533  17.431   0.298
34018W        W86914  15.301  16.881   9.239
34019W        W86915   8.838  28.845   2.191
34020W        W86916  21.792  13.925   3.034
34021W        W86917  34.099  19.654   8.016
34022W        W86918   2.206   6.225   8.106
34023W        W86919  23.774  14.406   0.716
34024W        W86920   9.557  21.654   6.804
34025W        W86921   9.486  18.833   0.030
34026W        W86922  18.132  11.696   3.786
34027W        W86923  22.626   8.056   1.360
34028W        W86924  28.321   6.977   1.926
34029W        W86925   5.823   5.376   7.132
34030W        W86926  20.509  34.278  10.316
34031W        W86927  28.823   5.325   9.704
34032W        W86928   5.010  27.448   2.377
34033W        W86929  12.477  24.959   9.017
34034W        W86930  32.997   9.048   8.559
34035W        W86931  15.600  28.876   2.565
34036W        W86932   3.983   7.851   1.925
34037W        W86933   4.123  13.585   3.824
34038W        W86934  35.672  10.874   2.873
34039W        W86935  25.412   4.947   0.041
34040W        W86936  29.624   2.833   9.260
34041W        W86937  11.113   7.631   2.399
34042W        W86938  28.278  26.774   7.170
34043W        W86939  10.136  29.611   1.232
34044W        W86940  20.938  27.510  10.317
34045W        W86941  10.353  23.031   0.237
34046W        W86942  23.599  21.679   8.455
34047W        W86943  26.755  30.421   1.404
34048W        W86944  28.753  26.658   3.644
34049W        W86945  20.915   5.682   9.158
34050W        W86946  12.572  34.211   7.418
34051W        W86947  25.409   5.101   8.079
34052W        W86948  21.326   6.624   9.767
34053W        W86949  18.350  14.191   1.689
34054W        W86950   6.694  24.833   8.081
34055W        W86951   9.306  24.486   6.593
34056W        W86952  30.141  21.096   2.053
34057W        W86953  35.222   3.815   8.182
34058W        W86954  35.752  35.460   7.708
34059W        W86955   6.769   3.575   2.349
34060W        W86956   6.668  28.113   0.958
34061W        W86957  14.606  18.721   2.897
34062W        W86958   2.852  20.673   9.745
34063W        W86959  32.422  28.936   9.613
34064W        W86960   3.145  11.469   7.382
34065W        W86961  15.308   1.004  10.061
34066W        W86962  35.331  24.672   0.343
34067W        W86963  30.295  14.197   3.486
34068W        W86964  26.075  18.055  10.187
34069W        W86965  13.722   8.440   1.759
34070W        W86966   0.336  11.577   2.096
34071W        W86967  26.106  18.647   8.743
34072W        W86968  33.840  27.118   2.714
34073W        W86969  31.603   3.642   2.724
34074W        W86970  16.910  29.591   0.592
34075W        W86971   5.111  35.371   1.790
34076W        W86972  33.621   8.363   0.838
34077W        W86973  10.358  24.394   0.706
34078W        W86974   5.752  30.933   1.146
34079W        W86975   3.420   6.299   8.607
34080W        W86976  19.140  15.588   0.085
34081W        W86977   6.327   6.592   0.786
34082W        W86978  32.312   1.686   8.016
34083W        W86979  25.261  25.702   2.698
34084W        W86980  15.859  32.282   9.735
34085W        W86981  15.890  33.885   9.962
34086W        W86982  32.592  14.062   2.156
34087W        W86983  21.340   7.855   9.110
34088W        W86984   1.966  19.699   1.590
34089W        W86985  13.281  19.789   8.919
34090W        W86986  34.135  20.329   1.673
34091W        W86987  27.282  24.456   8.991
34092W        W86988  34.475  18.533   9.160
34093W        W86989   3.898  16.273   9.557
34094W        W86990  17.407   5.168   1.187
34095W        W86991  12.164  24.112   2.642
34096W        W86992  15.712  32.873   0.856
34097W        W86993   9.530  25.595   7.227
34098W        W86994  29.829  22.999   9.663
34099W        W86995   5.798  33.421   7.902
34100W        W86996  34.297  30.012   0.363
34101W        W86997  28.158  26.762   2.007
34102W        W86998  20.767  23.241   2.132
34103W        W86999  18.416  18.474   9.606
34104W        W87000  32.404  10.814   1.888
34105W        W87001   8.471   1.526   7.466
34106W        W87002   2.313   9.708   2.998
34107W        W87003  25.837  33.947   9.546
34108W        W87004  17.319   1.723   9.136
34109W        W87005   4.024   3.514   0.775
34110W        W87006  34.053  24.228   3.479
34111W        W87007  23.039  26.978   8.348
34112W        W87008  31.305  32.717   2.483
34113W        W87009   2.065   3.570   1.045
34114W        W87010  33.531  22.899   2.457
34115W        W87011  32.237  12.538   9.788
34116W        W87012   8.392  23.513   6.685
34117W        W87013  33.836   7.536   9.918
34118W        W87014  30.429  26.304   8.917
34119W        W87015  13.172   7.518   3.055
34120W        W87016  30.298  30.756   1.323
34121W        W87017  22.014  23.855   8.640
34122W        W87018  23.853   8.851   0.069
34123W        W87019  26.165   8.070   0.335
34124W        W87020  25.923  26.809   2.060
34125W        W87021  28.413  34.745   2.519
34126W        W87022  20.160  32.431   1.564
34127W        W87023  34.631  30.295  10.245
34128W        W87024   9.254  33.909   9.183
34129W        W87025  28.523  27.152   0.040
34130W        W87026   1.525  20.448   0.793
34131W        W87027   2.469  23.998   0.965
34132W        W87028  21.720  12.499   0.260
34133W        W87029  14.871  12.235   7.280
34134W        W87030  23.400  32.030   1.357
34135W        W87031  24.024  15.428   1.217
34136W        W87032  12.004  16.875   9.521
34137W        W87033  32.692  22.646   9.870
34138W        W87034  23.907   7.102   7.880
34139W        W87035   6.915  24.632  10.108
34140W        W87036  32.473  19.304   9.476
34141W        W87037  26.466  13.157   7.472
34142W        W87038  13.373  29.673   1.122
34143W        W87039  34.467  23.985   3.415
34144W        W87040  16.355  20.419   1.289
34145W        W87041   3.362  24.733   9.513
34146W        W87042   9.452  29.023   8.760
34147W        W87043  24.675  23.120   1.943
34148W        W87044  32.369   5.854   0.147
34149W        W87045  19.457  34.587   3.460
34150W        W87046   6.102   6.727  10.330
34151W        W87047  24.651   8.256   8.308
34152W        W87048  15.343  16.958   0.800
34153W        W87049  30.856  22.047  10.049
34154W        W87050  29.410  34.932   1.196
34155W        W87051  28.266  24.690   0.544
34156W        W87052  27.280  13.723   1.922
34157W        W87053  32.344  19.765   1.831
34158W        W87054   1.763  23.293   0.722
34159W        W87055   0.561  26.127   2.323
34160W        W87056   2.560   4.411   3.307
34161W        W87057  19.939  30.430   1.388
34162W        W87058  25.647  12.222   1.145
34163W        W87059  13.701   1.658   1.775
34164W        W87060  19.948  24.432   9.334
34165W        W87061   2.027   2.559   0.941
34166W        W87062  17.928  16.928   9.328
34167W        W87063   4.522  26.532   0.873
34168W        W87064  33.254  34.544   7.405
34169W        W87065  24.391  35.991   2.555
34170W        W87066   4.869  35.296   0.304
34171W        W87067  35.086  10.575   2.137
34172W        W87068   1.555  23.290   1.548
34173W        W87069  28.806  16.469   3.481
34174W        W87070  29.848   3.490   8.278
34175W        W87071   8.681  30.826   7.737
34176W        W87072  14.425   4.608   0.509
34177W        W87073  17.644   0.245   1.270
34178W        W87074  26.252  34.168   9.786
34179W        W87075  14.677  17.023   2.883
34180W        W87076   5.341  26.310   8.867
34181W        W87077  24.588  28.072   1.752
34182W        W87078  28.131  11.762   9.402
34183W        W87079   2.694   6.608   2.925
34184W        W87080  33.572  31.889   9.114
34185W        W87081  13.516   1.695   2.221
34186W        W87082  19.522  33.523   0.619
34187W        W87083  11.403  31.694   9.078
34188W        W87084  17.602  29.264   3.053
34189W        W87085  16.208  23.399   1.427
34190W        W87086  35.546  10.886   0.038
34191W        W87087   7.255  22.160   8.955
34192W        W87088   6.994  26.701  10.062
34193W        W87089  10.598  25.400   2.662
34194W        W87090  28.673  25.334   2.731
34195W        W87091  30.276  13.954   1.406
34196W        W87092  24.282   0.612   1.231
34197W        W87093   5.024  12.186   1.303
34198W        W87094  24.942  28.792   0.586
34199W        W87095  31.737  34.704   9.420
34200W        W87096  34.034   2.240   0.532
34201W        W87097   2.880   1.716   7.755
34202W        W87098  24.830  35.240   2.474
34203W        W87099   6.980  31.366   7.887
34204W        W87100   6.325   3.857   0.479
34205W        W87101   8.752  11.337   7.329
34206W        W87102  33.043  18.245   0.924
34207W        W87103  19.463  25.269   2.222
34208W        W87104   5.224  25.082   0.163
34209W        W87105  15.003   2.633   2.847
34210W        W87106   3.111  19.605   1.484
34211W        W87107   9.722  32.712   3.043
34212W        W87108   8.399  31.814   0.451
34213W        W87109  33.979  16.260   0.742
34214W        W87110  25.334  26.671   1.257
34215W        W87111   6.392  32.545   9.755
34216W        W87112  14.871   7.645   2.567
34217W        W87113  17.189   3.522   3.383
34218W        W87114   7.761  28.319   9.061
34219W        W87115   2.240  25.655   2.300
34220W        W87116  27.046  18.257   1.369
34221W        W87117  10.906   8.960   0.367
34222W        W87118   9.815  34.743   8.070
34223W        W87119  13.273   2.165   9.060
34224W        W87120  32.986  30.924   8.216
34225W        W87121  13.939  35.594   2.006
34226W        W87122   3.809  33.385   9.028
34227W        W87123   7.713   7.144   1.477
34228W        W87124  29.423  27.639   1.072
34229W        W87125  15.088   2.673   9.166
34230W        W87126  32.025   5.641   8.376
34231W        W87127  11.238  28.342   9.513
34232W        W87128  31.489  16.698   1.139
34233W        W87129   8.383  14.568   3.687
34234W        W87130  19.682  11.228   7.689
34235W        W87131   2.967  28.005   7.341
34236W        W87132  18.164  16.129   8.006
34237W        W87133  16.030  27.686   7.459
34238W        W87134  33.495  14.728  10.302
34239W        W87135  29.403  23.243   8.942
34240W        W87136   9.349  17.510   7.650
34241W        W87137  14.650  31.794   1.772
34242W        W87138  20.739  26.282   7.474
34243W        W87139  28.527  35.851   8.051
34244W        W87140  23.756   3.131   2.344
34245W        W87141  14.959  33.232   8.840
34246W        W87142  32.073  30.440   3.501
34247W        W87143   9.283  31.086   0.914
34248W        W87144   1.689  19.414   8.171
34249W        W87145  34.426  23.467   1.460
34250W        W87146   3.436  30.900   0.863
34251W        W87147  35.236  33.568   7.317
34252W        W87148  27.295  12.888   1.185
34253W        W87149   2.569  14.636   3.020
34254W        W87150  18.119   4.703   0.712
34255W        W87151  19.954  28.644   8.564
34256W        W87152  27.016   5.607   8.849
34257W        W87153   5.058   6.280   8.159
34258W        W87154  18.490  16.609   1.542
34259W        W87155   7.782  15.681   1.278
34260W        W87156  22.981   4.167   3.603
34261W        W87157  29.657  11.812   8.398
34262W        W87158  20.650  24.220   1.420
34263W        W87159  15.064  26.102   0.423
34264W        W87160  27.115  12.190  10.318
34265W        W87161  10.241  18.850   9.617
34266W        W87162  18.940   5.759   8.671
34267W        W87163  35.319  26.433   3.242
34268W        W87164   0.619   1.094   0.680
34269W        W87165   3.936  26.550   1.004
34270W        W87166   3.618  33.748   9.620
34271W        W87167   4.263  22.337   2.195
34272W        W87168  14.955  21.574  10.248
34273W        W87169  22.091  21.551   1.520
34274W        W87170  22.578   5.007   8.459
34275W        W87171  18.040  32.395   9.947
34276W        W87172  32.910  19.957   1.751
34277W        W87173   8.342   6.466   1.378
34278W        W87174  34.872  19.042   9.822
34279W        W87175   1.399   8.917   1.771
34280W        W87176   8.125  12.624   8.527
34281W        W87177  19.486  17.972   0.128
34282W        W87178  11.012  13.654   2.589
34283W        W87179  30.798  27.524   9.222
34284W        W87180  17.234  20.614   8.083
34285W        W87181  34.650  29.053   3.274
34286W        W87182  14.476  33.949   8.764
34287W        W87183  13.374   0.347   1.278
34288W        W87184   2.211  34.808   0.524
34289W        W87185  12.298  32.929   1.276
34290W        W87186  17.465   5.791   3.110
34291W        W87187  31.563  28.693   0.673
34292W        W87188  12.032   6.559   1.186
34293W        W87189  23.156   1.689   1.754
34294W        W87190   0.721  23.810   9.941
34295W        W87191  22.703  26.253   0.177
34296W        W87192  10.985   9.931  10.050
34297W        W87193  29.972   9.005   2.906
34298W        W87194   7.585  24.756   7.619
34299W        W87195   9.902   8.299   0.162
34300W        W87196  13.497  30.243   8.482
34301W        W87197  29.321   3.635   1.505
34302W        W87198  35.025   1.026   1.199
34303W        W87199  33.439   0.191   9.724
34304W        W87200  29.763  32.707   0.650
34305W        W87201  21.867  26.206   0.830
34306W        W87202  31.044  18.039   1.026
34307W        W87203  27.260   9.870   2.806
34308W        W87204  19.351  22.215   9.305
34309W        W87205  27.338   9.457   1.792
34310W        W87206   0.636  12.740   9.273
34311W        W87207  21.094  23.981   3.279
34312W        W87208  18.118   6.943   1.385
34313W        W87209  20.253   8.273   0.497
34314W        W87210  23.735  27.656   9.565
34315W        W87211   8.759  29.453  10.316
34316W        W87212  10.899  25.576   1.741
34317W        W87213  23.517  16.334   1.340
34318W        W87214  30.983   6.113   9.121
34319W        W87215   1.040   6.261   8.976
34320W        W87216  35.132   9.042   9.823
34321W        W87217   0.809  33.371   2.800
34322W        W87218  18.211  33.947   1.434
34323W        W87219  33.932  32.350   2.392
34324W        W87220  24.906  33.786   8.704
34325W        W87221  31.148  10.478   1.019
34326W        W87222  31.528  32.066   0.214
34327W        W87223  26.408  10.044   8.188
34328W        W87224   8.916   5.997   1.461
34329W        W87225  32.752  24.311   1.611
34330W        W87226  34.531   5.842   9.596
34331W        W87227  14.784  20.503   1.359
34332W        W87228  10.447  30.535   8.920
34333W        W87229  19.593   2.550   2.580
34334W        W87230  16.686   3.640   7.983
34335W        W87231  31.781   9.012   8.863
34336W        W87232  22.776  34.773   7.395
34337W        W87233  28.612  24.274   2.245
34338W        W87234  12.083  12.136   8.064
34339W        W87235   0.366  11.720   2.572
34340W        W87236  21.786  33.348   2.489
34341W        W87237   0.837  31.177   3.354
34342W        W87238   2.042  21.970   3.878
34343W        W87239  27.838  19.052   9.766
34344W        W87240   7.946  14.949   2.346
34345W        W87241  33.339   1.939   1.390
34346W        W87242  22.990  33.080   9.928
34347W        W87243   8.152   7.025   1.729
34348W        W87244   2.202   0.662   3.203
34349W        W87245  19.086  22.344   2.270
34350W        W87246   7.151  13.621   2.686
34351W        W87247  18.481  21.104   1.572
34352W        W87248  14.657  15.024   9.503
34353W        W87249  16.857   5.950   0.757
34354W        W87250   9.773   1.390  10.251
34355W        W87251   1.820  25.869   2.588
34356W        W87252  18.671  12.312   7.652
34357W        W87253   0.346  14.766   2.532
34358W        W87254  27.631  13.320   0.637
34359W        W87255  17.880   6.029   1.697
34360W        W87256   6.912  17.159   2.713
34361W        W87257   7.031  22.657   0.959
34362W        W87258   3.257  30.089   1.676
34363W        W87259  10.478  18.539   9.239
34364W        W87260   9.986   5.072   0.620
34365W        W87261  30.283  22.732   9.238
34366W        W87262  11.088  22.709   8.022
34367W        W87263  28.914  25.761   9.893
34368W        W87264  14.001  23.694   0.848
34369W        W87265   0.772   9.178   0.568
34370W        W87266  30.071  32.021   8.040
34371W        W87267  17.263  23.103   9.785
34372W        W87268   4.700  23.140   2.280
34373W        W87269  26.564  16.494   2.881
34374W        W87270   6.645  30.238   7.811
34375W        W87271   3.160   1.823   7.346
34376W        W87272   2.848  18.100   1.558
34377W        W87273  22.228  34.685   9.837
34378W        W87274   6.795  27.653   8.332
34379W        W87275  28.582  34.030   1.889
34380W        W87276  19.390  23.486  10.236
34381W        W87277  20.474  33.822  10.134
34382W        W87278  29.978   8.113   7.714
34383W        W87279   8.091   4.233   8.781
34384W        W87280  25.426  30.939   1.384
34385W        W87281  21.604  15.441   8.921
34386W        W87282  17.998  21.018   1.313
34387W        W87283   7.299   5.694   9.733
34388W        W87284  25.858   0.394   2.741
34389W        W87285  12.902   2.622   0.176
34390W        W87286  19.771  26.009   7.987
34391W        W87287  22.741  16.864   1.592
34392W        W87288   8.849  32.644   3.235
34393W        W87289  10.399  18.547   1.200
34394W        W87290   8.605  22.397   8.696
34395W        W87291  35.153   6.732   7.809
34396W        W87292  32.589   1.287   1.032
34397W        W87293  26.641  25.824   0.039
34398W        W87294   0.082  25.927   7.633
34399W        W87295  22.712  27.623   1.575
34400W        W87296  34.332  12.570   8.295
34401W        W87297  19.618  28.266   0.925
34402W        W87298  30.853  18.777   8.876
34403W        W87299   1.018  30.415   0.881
34404W        W87300  14.909   1.603   9.739
34405W        W87301  32.681  28.635   1.109
34406W        W87302   0.776  19.358   2.368
34407W        W87303  21.322  26.814   8.576
34408W        W87304  27.939  30.779   1.991
34409W        W87305  31.528  15.938   1.661
34410W        W87306   0.283  26.873   1.176
34411W        W87307  30.997  29.389   2.472
34412W        W87308   4.159  22.976   2.039
34413W        W87309  16.924  34.561   0.495
34414W        W87310   7.207  23.141   1.113
34415W        W87311  21.715  12.037   0.494
34416W        W87312  10.473  10.583   1.612
34417W        W87313  35.590   1.626   1.644
34418W        W87314   3.670   0.137   1.924
34419W        W87315   1.053   7.948   9.097
34420W        W87316  25.213  20.643   0.655
34421W        W87317   6.210  12.682   9.784
34422W        W87318  29.154  11.229   2.915
34423W        W87319  25.442  28.376   7.311
34424W        W87320  11.546  34.201   0.160
34425W        W87321  32.473  35.575   7.757
34426W        W87322   2.260  18.818   9.791
34427W        W87323  23.753   7.070   1.854
34428W        W87324  15.419   8.364   0.237
34429W        W87325   3.168   9.127   0.951
34430W        W87326   1.025  12.316   1.004
34431W        W87327  23.064  20.408   2.816
34432W        W87328   8.583  20.602   2.404
34433W        W87329   6.815  35.858   2.010
34434W        W87330  23.731   5.089   0.552
34435W        W87331   1.177  32.848   1.386
34436W        W87332  23.419   5.817   3.267
34437W        W87333   3.032   7.575   0.314
34438W        W87334  24.305  11.733   0.742
34439W        W87335   8.474   3.840   7.702
34440W        W87336  22.770   5.134  10.323
34441W        W87337  23.192  13.236   7.817
34442W        W87338   1.828  15.093   3.830
34443W        W87339  29.340  24.237  10.210
34444W        W87340  34.013  27.790   9.515
34445W        W87341   6.519  12.008   7.643
34446W        W87342   2.746  26.921   1.218
34447W        W87343  24.167  15.748   2.689
34448W        W87344  33.066  23.162   8.749
34449W        W87345  32.616   6.920   0.221
34450W        W87346  15.301  16.491   8.898
34451W        W87347   1.837  10.079   8.732
34452W        W87348   6.596  35.948   7.491
34453W        W87349   7.485   5.752   2.763
34454W        W87350  31.661  29.420   7.958
34455W        W87351  12.782  21.741   0.669
34456W        W87352  12.342   1.786   9.250
34457W        W87353  13.711   1.373   1.074
34458W        W87354  33.044   6.081   7.575
34459W        W87355  15.006   9.045   3.971
34460W        W87356  12.496  25.678   9.944
34461W        W87357  28.615  24.921  10.284
34462W        W87358  29.326   7.155   8.385
34463W        W87359   3.520  17.405   0.494
34464W        W87360   5.354  13.274   9.672
34465W        W87361  31.768   9.381   9.187
34466W        W87362  16.608   5.490   3.291
34467W        W87363  13.815   9.249   1.433
34468W        W87364  28.235  24.460   8.619
34469W        W87365  33.093   9.541   8.876
34470W        W87366  24.261   5.421   2.305
34471W        W87367   7.632   5.626   0.335
34472W        W87368  15.569  19.822   3.972
34473W        W87369  13.615  30.716   2.824
34474W        W87370  15.680   9.203   9.223
34475W        W87371  20.602  14.032   1.419
34476W        W87372  12.891  29.962   7.828
34477W        W87373   1.479   5.624   0.501
34478W        W87374   6.115  24.628   2.262
34479W        W87375  17.440  32.491   9.642
34480W        W87376   4.871  12.618   9.844
34481W        W87377   3.387  33.154   0.390
34482W        W87378   5.772   2.997   1.545
34483W        W87379  17.922  10.253   1.295
34484W        W87380  32.118  26.428   3.036
34485W        W87381  33.952  12.207   8.164
34486W        W87382  30.998  16.978   3.025
34487W        W87383  14.708   5.852   1.757
34488W        W87384   7.012  34.719   9.114
34489W        W87385  35.203  22.508   0.346
34490W        W87386  13.845  34.184   9.404
34491W        W87387  16.821  11.644   2.392
34492W        W87388   3.127  25.499   8.204
34493W        W87389   1.556  16.209   2.256
34494W        W87390  20.083   9.544   2.697
34495W        W87391   2.952  30.800   1.104
34496W        W87392  35.530   8.324   7.508
34497W        W87393  19.180  23.099   2.916
34498W        W87394  32.267  20.830   8.487
34499W        W87395  27.908  10.013   0.701
34500W        W87396  24.243  11.203   3.668
34501W        W87397   8.406   0.018   1.867
34502W        W87398  22.307   5.108   8.997
34503W        W87399  17.712  16.959   8.249
34504W        W87400   8.269   5.433   8.142
34505W        W87401  23.626  15.991   7.811
34506W        W87402  25.190   7.472   0.387
34507W        W87403   6.440  19.622   9.650
34508W        W87404   7.797  15.779   7.879
34509W        W87405   9.510  22.716   8.731
34510W        W87406   5.250   6.076   3.071
34511W        W87407  26.394   9.522   0.403
34512W        W87408  32.122  21.560   9.133
34513W        W87409  23.760   4.323   8.850
34514W        W87410   5.550  13.573   3.791
34515W        W87411  11.066  18.971   9.321
34516W        W87412   0.121  27.616   2.819
34517W        W87413  11.999  15.805   8.814
34518W        W87414  25.893  34.321   0.181
34519W        W87415  34.078   3.465   1.642
34520W        W87416   1.120  27.924   0.899
34521W        W87417  16.535  15.949   7.997
34522W        W87418   1.243  23.076   9.893
34523W        W87419   4.332  13.290  10.183
34524W        W87420  23.730  14.410  10.046
34525W        W87421  26.178   5.487   0.952
34526W        W87422  31.793   4.284   9.221
34527W        W87423  11.184  14.291   0.610
34528W        W87424  31.268   2.135   3.715
34529W        W87425  16.734   0.864   2.268
34530W        W87426  31.961  15.522   1.761
34531W        W87427  25.706  31.128   0.953
34532W        W87428  11.652   6.917   2.651
34533W        W87429  30.487  15.360   0.734
34534W        W87430  12.878  16.400   1.702
34535W        W87431  21.845  32.591   2.984
34536W        W87432  10.997   5.044   6.996
34537W        W87433   5.979  28.969   0.078
34538W        W87434   0.240  17.094   3.217
34539W        W87435  23.170  18.733   0.969
34540W        W87436  29.587   5.475   9.093
34541W        W87437  14.447  28.146   0.636
34542W        W87438  35.865  15.582   1.452
34543W        W87439   2.779  30.210   1.193
34544W        W87440  11.144  27.679   3.238
34545W        W87441  28.527  32.375   8.265
34546W        W87442  28.765  12.301   8.100
34547W        W87443  35.500   1.870   2.346
34548W        W87444   9.870   3.215   1.105
34549W        W87445  23.216  35.225   8.994
34550W        W87446   4.358  33.007   8.600
34551W        W87447  27.794  22.261   2.083
34552W        W87448  18.451   9.408   1.168
34553W        W87449   4.078   9.616   2.690
34554W        W87450  14.956   3.644   8.283
34555W        W87451  27.234   0.974   3.078
34556W        W87452  26.800   3.059   9.195
34557W        W87453  27.305   7.485   1.655
34558W        W87454  14.464  25.941   8.993
34559W        W87455  15.509  24.699   1.951
34560W        W87456  19.758  33.029   3.558
34561W        W87457  15.240  34.137   0.111
34562W        W87458  32.295  27.217   9.871
34563W        W87459  17.931  10.058   0.097
34564W        W87460   3.926  15.741   2.205
34565W        W87461  10.500   2.895   9.323
34566W        W87462  31.139  20.962   1.279
34567W        W87463  21.596   0.953   8.532
34568W        W87464  12.556  14.349   9.916
34569W        W87465  30.194  11.363   8.654
34570W        W87466  26.249  12.205   7.736
34571W        W87467   2.164  33.125   7.466
34572W        W87468   6.415  10.774   1.100
34573W        W87469  21.347   1.941   0.419
34574W        W87470  25.491   0.239   8.421
34575W        W87471  13.847  15.400   3.860
34576W        W87472  16.917  22.455   2.329
34577W        W87473  17.454  35.970   8.866
34578W        W87474  11.646  15.726   0.794
34579W        W87475   4.946  26.462   2.455
34580W        W87476  34.256  29.099   8.795
34581W        W87477  14.437  33.083   7.904
34582W        W87478   2.369   4.944   3.523
34583W        W87479  17.180  34.887   7.790
34584W        W87480  27.357  14.617   0.437
34585W        W87481  27.925  35.948   2.650
34586W        W87482  12.183  25.728   1.486
34587W        W87483  30.125  11.738   7.514
34588W        W87484   3.684  12.206   8.723
34589W        W87485  10.563   3.416   9.392
34590W        W87486  22.289   7.129   7.961
34591W        W87487   0.443  10.648   2.224
34592W        W87488  17.089  27.868   2.560
34593W        W87489  25.019  33.406   1.302
34594W        W87490  11.737  16.994   0.931
34595W        W87491  28.453  16.195  10.023
34596W        W87492  34.406   6.982   0.863
34597W        W87493  32.031   0.831   8.206
34598W        W87494  15.890   0.014   0.093
34599W        W87495  26.248  20.797   9.463
34600W        W87496   7.237  25.267   0.918
34601W        W87497  30.803  20.804   2.950
34602W        W87498   1.998  24.742  10.008
34603W        W87499  12.632   8.713   9.670
34604W        W87500  18.965   4.216   3.452
34605W        W87501  17.581  11.959   2.570
34606W        W87502  22.512  17.120   9.245
34607W        W87503   9.786  25.030   2.081
34608W        W87504  21.476  35.763  10.083
34609W        W87505   6.854  31.764   1.985
34610W        W87506  32.933   1.181   1.934
34611W        W87507  34.035  18.905   3.260
34612W        W87508   7.735   0.265   1.062
34613W        W87509  12.664   9.363   0.065
34614W        W87510  32.809  10.974   2.758
34615W        W87511  16.241   1.988   7.945
34616W        W87512   2.176  21.963   2.246
34617W        W87513   5.362   4.924   8.809
34618W        W87514   1.927   8.959   9.268
34619W        W87515   3.303  27.668   1.181
34620W        W87516  23.625  16.110   3.713
34621W        W87517  35.766  32.576   0.290
34622W        W87518  17.056   2.701   9.791
34623W        W87519  28.483  25.383   0.042
34624W        W87520  18.460   9.252   2.568
34625W        W87521  18.189  22.270   8.653
34626W        W87522   2.079  29.408   9.921
34627W        W87523   5.115   6.538   9.740
34628W        W87524  21.778   1.876   2.443
34629W        W87525   5.856  24.842   3.344
34630W        W87526  19.818   3.946   2.694
34631W        W87527  34.799  22.115   1.994
34632W        W87528  10.418  35.022   8.792
34633W        W87529  31.771  13.634   9.962
34634W        W87530  11.283  10.420  10.001
34635W        W87531  27.147  31.050   1.197
34636W        W87532  33.161  25.825   7.446
34637W        W87533   9.183  21.121   8.458
34638W        W87534  21.253  32.534   1.006
34639W        W87535  24.112  12.994   0.066
34640W        W87536  13.653  32.848   1.082
34641W        W87537  32.770   6.079   8.596
34642W        W87538  29.251  32.397  10.177
34643W        W87539   3.638  32.330   8.465
34644W        W87540  13.840   4.202   9.227
34645W        W87541  24.276  22.303   8.432
34646W        W87542  14.296  33.910   2.293
34647W        W87543   2.706   9.030   2.641
34648W        W87544  15.043   6.030   0.384
34649W        W87545  10.882  13.043   2.760
34650W        W87546   8.297   9.660   1.662
34651W        W87547  27.340  32.788   0.581
34652W        W87548   4.197  17.399   2.794
34653W        W87549  25.886   0.003   1.845
34654W        W87550  28.977   0.563   1.919
34655W        W87551   5.219   6.803   0.131
34656W        W87552  26.494   5.320   9.316
34657W        W87553   9.809  33.092   9.984
34658W        W87554   9.750  29.562   8.114
34659W        W87555  18.835  31.741   0.723
34660W        W87556  20.490  32.302   2.697
34661W        W87557  18.442  12.929   9.989
34662W        W87558  12.847  34.137   2.004
34663W        W87559  32.066  25.626   1.287
34664W        W87560  15.828  34.342   9.616
34665W        W87561  18.025  30.207   1.082
34666W        W87562  35.494  20.367  10.071
34667W        W87563  31.805  26.322   8.274
34668W        W87564  18.314  25.023   3.631
34669W        W87565  32.682  24.030   0.865
34670W        W87566  12.944  18.250   3.335
34671W        W87567   3.774  22.290   8.338
34672W        W87568  17.426  27.513   0.383
34673W        W87569   1.958   1.041   0.078
34674W        W87570  21.738   9.037   3.455
34675W        W87571  28.255  31.250   9.738
34676W        W87572   5.297  31.158   2.106
34677W        W87573  30.989  15.613   7.719
34678W        W87574  28.991  17.842   0.247
34679W        W87575   8.382  28.954   8.571
34680W        W87576  28.199  30.702   9.866
34681W        W87577  28.136   1.437   8.747
34682W        W87578   4.916   8.986   2.441
34683W        W87579   5.077   5.685   9.446
34684W        W87580  25.189  25.710   8.571
34685W        W87581  14.161   1.271  10.225
34686W        W87582   6.377  20.029   8.980
34687W        W87583   4.226  21.415  10.240
34688W        W87584  26.777   4.452   0.993
34689W        W87585  33.264   7.211   9.790
34690W        W87586  14.237  29.740  10.140
34691W        W87587   6.004  32.796   0.474
34692W        W87588  35.382  23.012   2.701
34693W        W87589  30.988  31.960   0.781
34694W        W87590  26.426   7.331   1.649
34695W        W87591  11.229  10.814   8.191
34696W        W87592  13.185  11.698   7.415
34697W        W87593  14.586  17.753   3.262
34698W        W87594  32.957   1.202   2.784
34699W        W87595  33.238   2.981   0.879
34700W        W87596  13.550  13.268   2.618
34701W        W87597   8.616   6.121   7.721
34702W        W87598   7.028   3.986   2.662
34703W        W87599  11.940  25.012   9.633
34704W        W87600  29.745  13.886   8.655
34705W        W87601  32.525   0.377   7.462
34706W        W87602   1.677   7.390   0.463
34707W        W87603  28.738  32.582   1.530
34708W        W87604  29.267  28.564   0.095
34709W        W87605   5.141  34.184   1.605
34710W        W87606   2.931  18.077  10.024
34711W        W87607   0.681  31.883   3.189
34712W        W87608  21.959  32.251   7.166
34713W        W87609  34.672  14.193   2.129
34714W        W87610   7.888   0.464   1.465
34715W        W87611  29.881  13.016  10.293
34716W        W87612  22.139   6.773   1.011
34717W        W87613  32.181  10.361   2.781
34718W        W87614   2.642  12.562   1.370
34719W        W87615  15.579   7.329   0.910
34720W        W87616   8.090   7.515   3.299
34721W        W87617  26.943   0.062   9.293
34722W        W87618   8.603  30.718   9.432
34723W        W87619  22.139   3.819   2.065
34724W        W87620   2.729   1.451  10.280
34725W        W87621   4.785   0.538   2.575
34726W        W87622  17.075   7.701   8.880
34727W        W87623   9.084   6.874   7.906
34728W        W87624  35.941   6.841   2.392
34729W        W87625   0.456  17.355   8.303
34730W        W87626  13.830  29.805   0.267
34731W        W87627  31.468  20.853   9.702
34732W        W87628  31.219  17.158   0.074
34733W        W87629  34.360  26.280   2.787
34734W        W87630  19.729   0.300   8.013
34735W        W87631  19.681   1.160   0.222
34736W        W87632  11.094  26.536   9.911
34737W        W87633  24.925  32.458   2.603
34738W        W87634   2.892  30.664   8.504
34739W        W87635  19.086  15.937   8.205
34740W        W87636  13.870  14.053   0.111
34741W        W87637  13.107  30.318   0.950
34742W        W87638   9.259  29.497  10.266
34743W        W87639  22.787  25.045   2.577
34744W        W87640  26.990  17.518   0.254
34745W        W87641   3.874  30.253   8.589
34746W        W87642  28.107  18.854   8.073
34747W        W87643   1.651  24.591   2.815
34748W        W87644   7.946  14.289   7.973
34749W        W87645  32.359  20.447   3.390
34750W        W87646  18.885  10.203   2.744
34751W        W87647  27.348   6.802   2.779
34752W        W87648  16.366  33.124   2.828
34753W        W87649  28.509  10.120   8.230
34754W        W87650  27.793  13.810   0.599
34755W        W87651   0.501  16.905   8.049
34756W        W87652   9.121  11.612   9.153
34757W        W87653  22.979  27.461   7.378
34758W        W87654  23.554   0.761   2.219
34759W        W87655  16.194  31.289   2.750
34760W        W87656  17.574  12.134   0.985
34761W        W87657   2.752   2.418   9.972
34762W        W87658   8.171  14.163   1.350
34763W        W87659  28.355  19.715   7.759
34764W        W87660  11.610  18.947   7.417
34765W        W87661  19.578  26.656   7.966
34766W        W87662  21.858  25.722   2.592
34767W        W87663  28.893  18.288   1.531
34768W        W87664   2.157   1.994   1.993
34769W        W87665  25.951  31.232   9.625
34770W        W87666   6.318  23.465   8.504
34771W        W87667   0.047   0.265   9.715
34772W        W87668  33.597  27.597   7.947
34773W        W87669  13.583  31.763   0.488
34774W        W87670   8.966  22.936   2.504
34775W        W87671   4.404  18.597   8.144
34776W        W87672  32.370  29.885   0.413
34777W        W87673  32.617   1.375   0.206
34778W        W87674   6.113  24.874   2.755
34779W        W87675   4.871   7.577   1.806
34780W        W87676   9.651  18.340   9.161
34781W        W87677  34.006  33.052  10.114
34782W        W87678   1.679   9.187   3.450
34783W        W87679  14.801  26.010   3.189
34784W        W87680  26.291  33.645   9.823
34785W        W87681  29.022  18.815   3.142
34786W        W87682   8.870  35.598   6.721
34787W        W87683  29.956  10.589   1.049
34788W        W87684  19.455  22.250  10.182
34789W        W87685   3.001  25.676   9.561
34790W        W87686  31.068  30.116   9.103
34791W        W87687  26.321   6.257   2.376
34792W        W87688  34.554  22.591   8.154
34793W        W87689  31.784   5.304   8.131
34794W        W87690  32.137  12.060  10.133
34795W        W87691  14.248  17.328   8.410
34796W        W87692  16.618  11.120  10.184
34797W        W87693  26.865   4.161   9.876
34798W        W87694  20.787   7.452   0.172
34799W        W87695   7.247  31.935   2.666
34800W        W87696  29.245  34.628  10.121
34801W        W87697  20.473  28.341   7.990
34802W        W87698  11.383  19.366   7.931
34803W        W87699  10.287  34.046   8.149
34804W        W87700   8.217  11.394   0.806
34805W        W87701  23.980   1.705   3.039
34806W        W87702  32.961   1.947   7.459
34807W        W87703   8.290  27.767   7.199
34808W        W87704  15.373   5.218   1.288
34809W        W87705  28.735   3.515   9.887
34810W        W87706  21.011  13.996   3.093
34811W        W87707  15.997  16.440   1.449
34812W        W87708  11.317  15.470   6.978
34813W        W87709  19.667   6.774   9.151
34814W        W87710  21.608  24.912   2.902
34815W        W87711   7.025  35.572   7.271
34816W        W87712  35.139  34.952   9.627
34817W        W87713  28.302  33.217   2.831
34818W        W87714  35.302  20.619   2.425
34819W        W87715  19.500   3.674   9.693
34820W        W87716  28.579   1.706   7.243
34821W        W87717  29.990  13.047   7.716
34822W        W87718   3.490  25.690   3.633
34823W        W87719   5.232  28.080   9.122
34824W        W87720  27.131  32.327   0.927
34825W        W87721  35.782  20.427   2.968
34826W        W87722  14.039  27.121  10.122
34827W        W87723  19.763  10.968   3.565
34828W        W87724  25.423  21.366   3.043
34829W        W87725  23.309   5.756   7.695
34830W        W87726  32.737  32.754   2.377
34831W        W87727  10.836  29.055   8.992
34832W        W87728  32.218  34.034   9.953
34833W        W87729  10.227  35.406   0.817
34834W        W87730  35.124   0.224   1.543
34835W        W87731  14.458  25.363   2.351
34836W        W87732  29.324  27.700   9.527
34837W        W87733  33.616  26.382   8.290
34838W        W87734  31.874   4.609   0.741
34839W        W87735   7.211   7.318   8.674
34840W        W87736  10.886   1.159   1.681
34841W        W87737   5.083  18.899   2.160
34842W        W87738  16.878  29.475   1.639
34843W        W87739  25.630  31.430  10.159
34844W        W87740  26.341  28.685   8.148
34845W        W87741  31.289  17.417   2.108
34846W        W87742  21.592  18.948   7.727
34847W        W87743   1.889  31.843   0.615
34848W        W87744  27.331  26.542   0.212
34849W        W87745  26.714  29.372   1.744
34850W        W87746   9.109   1.306   9.428
34851W        W87747  30.483  17.159   8.401
34852W        W87748  24.796   7.405   3.021
34853W        W87749  15.790   3.239   2.373
34854W        W87750   6.596  31.129   1.055
34855W        W87751  35.141   8.809   8.508
34856W        W87752  17.483  30.539   3.315
34857W        W87753  31.468  31.266   1.942
34858W        W87754  19.570   6.809   3.489
34859W        W87755   9.318   8.673   2.194
34860W        W87756  10.637  18.627   0.153
34861W        W87757  26.955  16.898   2.373
34862W        W87758  19.336   6.644   7.358
34863W        W87759  35.079   0.545  10.035
34864W        W87760  21.029  19.858   2.835
34865W        W87761  33.766  17.014   3.049
34866W        W87762  24.444  15.130   3.244
34867W        W87763  32.632  33.316   0.017
34868W        W87764  21.407  26.865   9.859
34869W        W87765   8.570  34.179   0.072
34870W        W87766   8.574  10.310   7.894
34871W        W87767   0.814  28.504   0.932
34872W        W87768  15.967  23.592   0.993
34873W        W87769  25.271  18.977   2.943
34874W        W87770  12.314  21.798   7.766
34875W        W87771  26.777  22.754   9.590
34876W        W87772  35.548  18.754   1.816
34877W        W87773  31.164  25.384   3.207
34878W        W87774  18.994   2.891   7.349
34879W        W87775   1.812  27.629  10.152
34880W        W87776   9.541  27.154   3.087
34881W        W87777  32.912  33.351   1.544
34882W        W87778  16.680  20.923   2.044
34883W        W87779  35.269  24.977   7.790
34884W        W87780  10.723   0.349   7.513
34885W        W87781  33.142  34.757   9.465
34886W        W87782   8.170  20.043   9.091
34887W        W87783  33.113   5.943   1.065
34888W        W87784   6.064   7.312   0.182
34889W        W87785  21.011  13.425   2.330
34890W        W87786  26.943  19.208   0.403
34891W        W87787  27.366  12.586  10.017
34892W        W87788  10.670  28.320   7.154
34893W        W87789   3.048  35.355   2.348
34894W        W87790   6.789   9.036  10.243
34895W        W87791  32.850   7.721   9.128
34896W        W87792  15.044  14.601   2.169
34897W        W87793   1.010  24.018   8.946
34898W        W87794  15.316  21.948   3.503
34899W        W87795  14.443   2.882   8.847
34900W        W87796  13.846   8.772   3.155
34901W        W87797  26.668  15.611   0.202
34902W        W87798   6.243  21.815   2.449
34903W        W87799  10.795  28.033   9.682
34904W        W87800  24.567  29.359   9.690
34905W        W87801   5.504  33.060   9.819
34906W        W87802  33.719   1.235   7.309
34907W        W87803  20.132   8.084   8.378
34908W        W87804  34.088  33.083   2.764
34909W        W87805  33.181  23.270   0.777
34910W        W87806  34.560  30.451   3.428
34911W        W87807  24.021  32.832   7.861
34912W        W87808   2.455  26.565   7.823
34913W        W87809  21.670   3.225   1.125
34914W        W87810  26.209  13.478   1.014
34915W        W87811  24.318   8.031   3.303
34916W        W87812  31.206  28.640   8.166
34917W        W87813   0.196  18.113   0.848
34918W        W87814  19.251  11.237   0.889
34919W        W87815  30.418  19.930   0.648
34920W        W87816  22.887   7.149   1.601
34921W        W87817  35.218  33.040   1.375
34922W        W87818  31.627  34.041   7.831
34923W        W87819  13.494  24.158   9.550
34924W        W87820  27.977  18.377   0.299
34925W        W87821  25.917  24.978   0.491
34926W        W87822   2.772   5.124   8.497
34927W        W87823  14.164   9.584   2.513
34928W        W87824  14.993  32.943   9.256
34929W        W87825   0.695  10.683   3.076
34930W        W87826  35.167   4.639   2.688
34931W        W87827  34.715   3.220   1.817
34932W        W87828  34.815  14.822   0.311
34933W        W87829  34.924  10.565   7.612
34934W        W87830  19.225  24.484   9.751
34935W        W87831  14.537  19.805   7.487
34936W        W87832   1.788  24.595   9.591
34937W        W87833  33.844  21.377   3.446
34938W        W87834  13.807   9.610   1.087
34939W        W87835   6.597  13.203   0.009
34940W        W87836   3.704   6.938   0.357
34941W        W87837   8.896  21.391   8.793
34942W        W87838   5.026  22.451   2.844
34943W        W87839  16.902  34.971  10.293
34944W        W87840   8.999  18.660   1.297
34945W        W87841  30.517  28.719   2.211
34946W        W87842  21.260  34.788   1.533
34947W        W87843   4.093  21.629   8.856
34948W        W87844   2.870  12.878   3.218
34949W        W87845  21.438   0.619   0.742
34950W        W87846  19.090  29.457   1.490
34951W        W87847  26.066  28.592   0.111
34952W        W87848  16.806  32.013   7.466
34953W        W87849  10.168   6.002   1.053
34954W        W87850  24.355   0.984   1.498
34955W        W87851  30.193  15.154   8.817
34956W        W87852   4.695  20.724   9.836
34957W        W87853  19.346  35.110   0.122
34958W        W87854  22.448  16.656   0.520
34959W        W87855  18.427   2.509   7.618
34960W        W87856  16.246  28.395   1.064
34961W        W87857  33.601   1.868   2.346
34962W        W87858  17.703  10.699   9.680
34963W        W87859  16.316  27.119   1.326
34964W        W87860   4.299  33.750   9.091
34965W        W87861   0.541  26.639   9.568
34966W        W87862  31.175  16.688   2.578
34967W        W87863  24.742  23.479   0.940
34968W        W87864   9.152  22.931   2.074
34969W        W87865  30.826   2.832   7.622
34970W        W87866  34.702  27.955   0.611
34971W        W87867  18.522  19.725   2.665
34972W        W87868  33.512  10.637   7.655
34973W        W87869  17.013  29.223   9.186
34974W        W87870  12.250  35.134   2.021
34975W        W87871   8.833   6.536   1.350
34976W        W87872  11.028  31.393   8.999
34977W        W87873  28.351  20.594   0.463
34978W        W87874  26.837  29.212   9.817
34979W        W87875   5.539  17.878   2.688
34980W        W87876   8.925   7.793   2.625
34981W        W87877   1.818  30.832   0.201
34982W        W87878  21.718  14.789   7.234
34983W        W87879   6.516  16.249   8.316
34984W        W87880  32.825  15.926   0.843
34985W        W87881  13.377  16.579   1.143
34986W        W87882   1.159  28.351   2.476
34987W        W87883  30.626  22.252   1.161
34988W        W87884   4.158  26.248   1.831
34989W        W87885  14.080   7.724   1.596
34990W        W87886  19.921  17.912   8.552
34991W        W87887  25.316  15.096   8.826
34992W        W87888   2.689   3.209   1.036
34993W        W87889   3.334  33.711   9.080
34994W        W87890  32.578  35.572   8.280
34995W        W87891  15.393   8.022   0.642
34996W        W87892  16.754   9.018   2.389
34997W        W87893  14.606   1.049   9.509
34998W        W87894  25.243   3.044   1.132
34999W        W87895  35.965  21.525   1.161
35000W        W87896   1.258  25.048   2.113
35001W        W87897  18.935   8.652   7.973
35002W        W87898  28.410  21.118   2.743
35003W        W87899   0.776  24.550   3.306
35004W        W87900  33.161  22.229   8.068
35005W        W87901  29.892  31.346   2.758
35006W        W87902  14.497  12.718   1.903
35007W        W87903   7.758   2.703   7.163
35008W        W87904   1.085  28.480   3.877
35009W        W87905  16.703  10.609   7.664
35010W        W87906  16.753  28.983   0.999
35011W        W87907  23.200  13.049   0.929
35012W        W87908   6.855  20.064   1.668
35013W        W87909  22.858  26.213   1.718
35014W        W87910  10.112  16.645   3.816
35015W        W87911  27.564  29.400   1.155
35016W        W87912  20.905  29.548   1.858
35017W        W87913  24.162   7.376   2.798
35018W        W87914   9.980  35.138   1.910
35019W        W87915   5.542  33.755   8.787
35020W        W87916  14.351  34.257   1.257
35021W        W87917  18.151  23.926   1.193
35022W        W87918  27.188   4.853   8.134
35023W        W87919  25.043  33.404   9.029
35024W        W87920  24.258   8.181   1.953
35025W        W87921  25.061  28.987   8.021
35026W        W87922  33.998  13.742   8.928
35027W        W87923  16.632  32.225   0.753
35028W        W87924  25.003  27.004   9.816
35029W        W87925  27.764   9.489   2.787
35030W        W87926  22.726  23.541  10.310
35031W        W87927  33.057  31.422   0.489
35032W        W87928   7.094  17.968   1.853
35033W        W87929  12.986  18.002   1.578
35034W        W87930  27.631  18.784   0.825
35035W        W87931   0.585  26.970   0.804
35036W        W87932  33.910  23.055   8.363
35037W        W87933  33.134  32.604   8.488
35038W        W87934   8.530  21.721   9.676
35039W        W87935  34.485   6.970  10.308
35040W        W87936  28.685  10.385   2.150
35041W        W87937  20.345  32.776   1.282
35042W        W87938  17.383   1.562   2.828
35043W        W87939   8.993  20.963   3.061
35044W        W87940  31.760   2.643   0.368
35045W        W87941   2.225  12.627   9.159
35046W        W87942   2.753  28.301   8.889
35047W        W87943  35.046  21.040   0.489
35048W        W87944   9.467  17.255   0.619
35049W        W87945  26.332  29.145   8.985
35050W        W87946   1.856  13.722  10.235
35051W        W87947  27.330   3.294   8.493
35052W        W87948   5.689   6.275   3.761
35053W        W87949   7.200   0.266   0.952
35054W        W87950  28.525   7.129   1.465
35055W        W87951  12.910  29.673   0.287
35056W        W87952   2.570   2.808  10.265
35057W        W87953  23.850  27.510   2.729
35058W        W87954  14.225   1.630   6.979
35059W        W87955   4.554  16.937   2.736
35060W        W87956   9.235  11.547   2.195
35061W        W87957  25.955  24.698   3.132
35062W        W87958   5.759  28.775   0.570
35063W        W87959  11.305   7.153   3.058
35064W        W87960  17.780  15.415   7.815
35065W        W87961  13.487  20.548   9.972
35066W        W87962   5.246  10.287   9.500
35067W        W87963  27.945  35.389  10.179
35068W        W87964  32.483  26.461   7.427
35069W        W87965  16.804  24.087   9.387
35070W        W87966   5.554  18.696   9.508
35071W        W87967  17.481  13.679   9.952
35072W        W87968  18.265   4.153   1.643
35073W        W87969  28.444  11.785   0.769
35074W        W87970  10.967  25.359  10.197
35075W        W87971  21.034  20.771   3.672
35076W        W87972  33.690  23.002   1.434
35077W        W87973  19.525  26.668  10.106
35078W        W87974  14.931  14.247   1.184
35079W        W87975   2.206  18.022   2.053
35080W        W87976  25.363  17.448   8.676
35081W        W87977   4.817  14.670  10.057
35082W        W87978   7.994  18.667   7.914
35083W        W87979  13.757   1.914   0.790
35084W        W87980  21.001   7.975   1.591
35085W        W87981   2.506  30.049   9.094
35086W        W87982  26.652  32.122   0.534
35087W        W87983  15.400  33.418   0.887
35088W        W87984  33.500  24.457   1.976
35089W        W87985   4.743  20.223   2.380
35090W        W87986  16.937   2.137   8.891
35091W        W87987  19.975   6.387   9.432
35092W        W87988  29.946  10.886   2.660
35093W        W87989  16.010  31.735   1.460
35094W        W87990   9.906  17.924   9.575
35095W        W87991  15.819  16.450   2.934
35096W        W87992  17.774  27.139   8.758
35097W        W87993  19.832   1.137   7.972
35098W        W87994   7.249  29.938   2.365
35099W        W87995  27.400  13.770   7.680
35100W        W87996   3.950  35.710   9.887
35101W        W87997   9.196   0.081  10.076
35102W        W87998  28.032  28.251   6.878
35103W        W87999  11.312  27.833   0.138
35104W        W88000  10.745  22.698   2.139
35105W        W88001   6.323  31.807   2.039
35106W        W88002  12.827  27.840   8.231
35107W        W88003  17.067  24.042   1.518
35108W        W88004  20.104  18.787   0.816
35109W        W88005  16.541   5.063   0.848
35110W        W88006  15.304  33.753   7.298
35111W        W88007  22.768  28.196   7.861
35112W        W88008  17.634  16.898   1.097
35113W        W88009  33.205  19.132   0.953
35114W        W88010   4.140  32.197   7.692
35115W        W88011  11.043   5.260   0.708
35116W        W88012  30.159  31.925   9.039
35117W        W88013  27.504  31.811   8.193
35118W        W88014  19.684  11.292   9.955
35119W        W88015  11.829  24.141   3.478
35120W        W88016  18.777  18.739   3.804
35121W        W88017  21.855  18.888   2.148
35122W        W88018   2.642   2.045   7.455
35123W        W88019  24.014   8.379   0.116
35124W        W88020   7.885   2.262   8.851
35125W        W88021  28.215  24.878   1.012
35126W        W88022   2.100   1.093   8.182
35127W        W88023  31.602   1.093   8.108
35128W        W88024  18.023  30.120   8.887
35129W        W88025   3.176  28.130   1.335
35130W        W88026   1.745  18.844   2.381
35131W        W88027  21.522   4.496   1.981
35132W        W88028  12.297  13.129   9.419
35133W        W88029  18.360  32.878   9.998
35134W        W88030  13.907  31.849   9.178
35135W        W88031   5.920  25.708   1.624
35136W        W88032  15.192   7.082   9.492
35137W        W88033   6.390   0.935   2.782
35138W        W88034   0.645  24.732  10.172
35139W        W88035  28.461  13.950   2.900
35140W        W88036  12.229   2.585   2.241
35141W        W88037   5.609  32.926   2.438
35142W        W88038  18.364   9.100   3.955
35143W        W88039  23.147  28.912   9.773
35144W        W88040  34.206  17.127   3.917
35145W        W88041  23.703  16.774   0.526
35146W        W88042   4.891  23.136   3.910
35147W        W88043   6.298  12.992   3.651
35148W        W88044  10.459  21.302   1.962
35149W        W88045  29.260   1.024   8.778
35150W        W88046   8.795  35.949   8.436
35151W        W88047  29.998  35.487   9.548
35152W        W88048  14.323  26.036   0.577
35153W        W88049   1.791  19.269   8.643
35154W        W88050   0.712  20.155   3.721
35155W        W88051  21.234  18.202   9.324
35156W        W88052   9.667  24.189   1.956
35157W        W88053   9.303  26.670   1.211
35158W        W88054  20.954   7.921   3.560
35159W        W88055  18.005   7.280   8.722
35160W        W88056   8.793  30.076   0.647
35161W        W88057  34.260  22.908   3.499
35162W        W88058   3.868  25.281   2.978
35163W        W88059  14.690   5.023   0.507
35164W        W88060  10.436  11.718   0.194
35165W        W88061  25.295  31.473   7.601
35166W        W88062   6.899  35.407   6.784
35167W        W88063  19.121  10.559   3.123
35168W        W88064  27.994   5.731   9.938
35169W        W88065  17.483  10.388   9.358
35170W        W88066   5.713  29.786   1.549
35171W        W88067  35.592  21.871   0.102
35172W        W88068   7.294   8.164   8.567
35173W        W88069   6.129  13.158   1.956
35174W        W88070  33.080  24.064   3.802
35175W        W88071   3.375   2.035   0.756
35176W        W88072  13.615  15.485   7.913
35177W        W88073   2.246  14.535   2.030
35178W        W88074  34.795  35.332   7.953
35179W        W88075  33.133   4.789   0.542
35180W        W88076  29.849  15.922   2.754
35181W        W88077   3.395  22.950   7.924
35182W        W88078   9.944  13.009   3.952
35183W        W88079  23.865  35.441   8.233
35184W        W88080  35.537  25.835   0.690
35185W        W88081   4.361  12.718   0.546
35186W        W88082   5.793  26.749   1.752
35187W        W88083   1.131  19.914   9.550
35188W        W88084   3.497  20.331   9.696
35189W        W88085  15.552  25.031   2.921
35190W        W88086   4.915   9.533   2.448
35191W        W88087   0.670   7.435   0.095
35192W        W88088  14.226   4.222   2.260
35193W        W88089   4.393  18.581   0.057
35194W        W88090   3.307  18.880   1.168
35195W        W88091   5.416  22.152   3.085
35196W        W88092  23.160  33.978   9.671
35197W        W88093  35.689  23.441   2.473
35198W        W88094  19.425   9.234  10.213
35199W        W88095  35.701  28.583   7.013
35200W        W88096  23.663  19.857   0.201
35201W        W88097  24.703  24.866   7.739
35202W        W88098   0.987  27.146   8.852
35203W        W88099  25.067  31.880   1.853
35204W        W88100  18.049  26.093   0.864
35205W        W88101  15.687   3.714   7.707
35206W        W88102  21.187  24.532   9.664
35207W        W88103  16.412   5.999   1.662
35208W        W88104   9.788  13.892   9.895
35209W        W88105  33.246  23.285   9.198
35210W        W88106  11.426  28.446   7.580
35211W        W88107   8.749   8.282   8.740
35212W        W88108  22.348   2.990   1.940
35213W        W88109  30.730  21.234   7.054
35214W        W88110  22.588  21.072   8.931
35215W        W88111  34.170   6.981   2.786
35216W        W88112  22.688   8.707   3.501
35217W        W88113  27.644  25.326   7.946
35218W        W88114  20.580  10.245   8.492
35219W        W88115   9.847  35.681   0.820
35220W        W88116   9.546   6.598   9.773
35221W        W88117  23.469  17.793   1.623
35222W        W88118  26.929  19.381   9.441
35223W        W88119   8.184  12.705   2.668
35224W        W88120  29.864   7.334  10.215
35225W        W88121   4.213   6.208   7.856
35226W        W88122  33.901  31.707   0.877
35227W        W88123  25.225   3.167   2.538
35228W        W88124  17.524  14.955   8.092
35229W        W88125  30.906  23.527   9.008
35230W        W88126  16.736  27.844  10.154
35231W        W88127   5.736  35.354   7.976
35232W        W88128  21.801  21.267   1.191
35233W        W88129  22.674   0.696   9.409
35234W        W88130   5.134  17.858   0.300
35235W        W88131  24.237  31.505   0.971
35236W        W88132  18.240  17.353   0.999
35237W        W88133  15.782  15.284   8.124
35238W        W88134  16.536  32.012   2.365
35239W        W88135  22.897  20.504   0.198
35240W        W88136  21.360  28.543   9.272
35241W        W88137   1.621  31.011   2.557
35242W        W88138  22.794  32.618   9.145
35243W        W88139  35.524  13.470   0.483
35244W        W88140  11.079   4.404   0.317
35245W        W88141  10.668  29.771   2.037
35246W        W88142  28.185  12.766   1.863
35247W        W88143  11.361  30.220   2.732
35248W        W88144  10.403   1.147   9.913
35249W        W88145  20.968  10.129   1.301
35250W        W88146   5.177   8.642  10.076
35251W        W88147  35.267  32.172   1.681
35252W        W88148   8.240  26.376   1.350
35253W        W88149  12.011  26.756   8.071
35254W        W88150  10.867   2.643   8.659
35255W        W88151  19.844  24.654   0.832
35256W        W88152  15.364  19.271   2.959
35257W        W88153   6.003  22.578   2.755
35258W        W88154  18.312  25.795   1.339
35259W        W88155   6.935  17.807   8.123
35260W        W88156   6.338  17.656   7.559
35261W        W88157  13.280  19.087   9.598
35262W        W88158  18.611   0.970   2.735
35263W        W88159   1.124  26.808   7.527
35264W        W88160   1.233   2.246   7.645
35265W        W88161  10.236  22.760   1.743
35266W        W88162  22.715   6.713   0.883
35267W        W88163   4.093   5.576   7.580
35268W        W88164  16.035  14.002   0.765
35269W        W88165  20.228  13.977   1.044
35270W        W88166   3.325  10.892   2.362
35271W        W88167  34.564  12.507   0.184
35272W        W88168   3.587  28.968   9.305
35273W        W88169  35.205  19.953   1.109
35274W        W88170  33.601  20.713   1.927
35275W        W88171   8.847  27.205   3.245
35276W        W88172  24.696  21.513   3.306
35277W        W88173  33.772  19.992   2.254
35278W        W88174   3.634  26.384   9.651
35279W        W88175  19.265  23.563   3.040
35280W        W88176   5.636  10.182   0.793
35281W        W88177  18.864   7.638   0.439
35282W        W88178  14.224  31.752   7.724
35283W        W88179  10.748  27.454   8.323
35284W        W88180  29.413   0.281   1.948
35285W        W88181  33.191   3.175  10.173
35286W        W88182  34.118   3.163   1.276
35287W        W88183   7.584  18.704   2.888
35288W        W88184  35.925  11.641   0.324
35289W        W88185   0.907  16.429   3.604
35290W        W88186  11.330  20.316   8.309
35291W        W88187  27.279  12.554   8.706
35292W        W88188  32.856  21.737   3.497
35293W        W88189   0.786  13.734   4.128
35294W        W88190   8.047   3.872   7.395
35295W        W88191  10.053  25.362   2.731
35296W        W88192   1.933  16.433   0.018
35297W        W88193  16.884  14.046   9.620
35298W        W88194  21.038  35.284   0.459
35299W        W88195  11.141  15.342   1.663
35300W        W88196  22.674  23.186   9.933
35301W        W88197  18.511   1.060  10.044
35302W        W88198   4.496  32.882   8.151
35303W        W88199  20.950  15.641   9.750
35304W        W88200  32.500  24.381   0.470
35305W        W88201  33.506  25.979   0.249
35306W        W88202   3.767  21.375   0.216
35307W        W88203  34.757  19.805   9.439
35308W        W88204   0.997  13.715   9.796
35309W        W88205   7.121  31.404   2.482
35310W        W88206  15.073  14.222  10.124
35311W        W88207   6.298  16.377   0.150
35312W        W88208  25.330  10.925   1.702
35313W        W88209  15.528  31.229   9.686
35314W        W88210  26.820  20.725   1.639
35315W        W88211   1.430   9.127   2.655
35316W        W88212  11.529  26.304  10.044
35317W        W88213  30.036   8.027   1.075
35318W        W88214  14.523  10.215   0.750
35319W        W88215  13.200   1.006   3.349
35320W        W88216   4.622  29.025   0.742
35321W        W88217  19.072  13.156   1.453
35322W        W88218  31.695  18.562   2.277
35323W        W88219   4.007  14.026   2.256
35324W        W88220  29.595  17.917   7.220
35325W        W88221  11.125  14.741   8.764
35326W        W88222  14.007  23.392   7.789
35327W        W88223  30.367  33.965   1.235
35328W        W88224   5.038  17.179   0.950
35329W        W88225  13.883  14.890   3.677
35330W        W88226   0.113  32.812   4.095
35331W        W88227  33.998   6.659   0.739
35332W        W88228  10.334  27.592   1.937
35333W        W88229   8.911  24.306   3.247
35334W        W88230  29.662   8.267   0.875
35335W        W88231  12.131  15.084   7.776
35336W        W88232  18.896  27.444   1.247
35337W        W88233  18.602  20.424   0.623
35338W        W88234   9.821  35.041   0.118
35339W        W88235   1.404  25.533   0.351
35340W        W88236  16.521  33.630   2.765
35341W        W88237   2.362  28.013   2.525
35342W        W88238  31.216  27.214   9.271
35343W        W88239  24.752  13.042   7.829
35344W        W88240  19.764  21.178   8.311
35345W        W88241  26.060  22.549   9.548
35346W        W88242   8.342  15.617   0.998
35347W        W88243  28.489  11.139  10.105
35348W        W88244   3.764   7.648   7.960
35349W        W88245  23.915  30.648   0.657
35350W        W88246  18.530  23.082   0.637
35351W        W88247   2.734  11.147   7.753
35352W        W88248  13.765  17.336   1.778
35353W        W88249  28.709   7.727   8.809
35354W        W88250  10.330  16.535   2.010
35355W        W88251  33.298   2.090   8.908
35356W        W88252  32.306   3.399   7.219
35357W        W88253  28.818  10.249  10.205
35358W        W88254   4.101  26.139   8.627
35359W        W88255  13.875  28.129   0.173
35360W        W88256   4.775   8.413   9.621
35361W        W88257   5.314  10.617   8.109
35362W        W88258  12.578  22.074   9.025
35363W        W88259   0.416  19.032   1.585
35364W        W88260  33.421  15.199   9.784
35365W        W88261  20.004   4.617   0.043
35366W        W88262  30.786   8.861   0.066
35367W        W88263   8.827   7.778   8.916
35368W        W88264  25.510  11.612   8.022
35369W        W88265  31.361  34.797   8.176
35370W        W88266  26.774   3.630   2.803
35371W        W88267   8.760  10.530   9.487
35372W        W88268  34.487   3.656   1.918
35373W        W88269  33.448  25.225   9.476
35374W        W88270   8.128  16.104   3.170
35375W        W88271  34.467  29.868   1.719
35376W        W88272  24.739  25.482   2.643
35377W        W88273  33.603  22.106   8.249
35378W        W88274  25.172  23.958   1.657
35379W        W88275   1.349   6.269   8.525
35380W        W88276  31.765   4.616   9.567
35381W        W88277  21.435   9.144   7.410
35382W        W88278  27.320  23.862   1.209
35383W        W88279  23.623  34.526   8.616
35384W        W88280  28.169   5.850   3.153
35385W        W88281   5.369  28.087   7.797
35386W        W88282   2.158  35.913   1.753
35387W        W88283  35.558  34.766   9.317
35388W        W88284  12.023  10.779   3.076
35389W        W88285   8.369   1.261   1.840
35390W        W88286  22.552  13.977   1.379
35391W        W88287   7.458   9.059   2.529
35392W        W88288  33.134  22.452   1.374
35393W        W88289  13.461  12.397   8.541
35394W        W88290  10.387  32.004   9.792
35395W        W88291  32.209  35.801   1.968
35396W        W88292  16.803   2.765   1.232
35397W        W88293  16.226  29.928   1.721
35398W        W88294  19.243  26.667   2.290
35399W        W88295  21.822   0.298   8.915
35400W        W88296  24.425  24.623   2.217
35401W        W88297   3.408  21.929   2.060
35402W        W88298  28.238  20.926   7.428
35403W        W88299  11.709   0.053   9.587
35404W        W88300  11.156  34.038   1.059
35405W        W88301  34.088  15.988   9.116
35406W        W88302  17.524   1.966   2.058
35407W        W88303  20.588   8.814  10.308
35408W        W88304  11.732  23.276  10.138
35409W        W88305  28.055  27.839   1.459
35410W        W88306  29.354  13.588   8.539
35411W        W88307  29.221  24.644   0.417
35412W        W88308  19.930  17.366   9.965
35413W        W88309  30.772  12.852   8.777
35414W        W88310  30.634   0.792   7.950
35415W        W88311  12.366  11.114   2.170
35416W        W88312  10.436  20.734  10.212
35417W        W88313  32.902  21.237   1.773
35418W        W88314  22.808  21.656   8.846
35419W        W88315  20.170  14.413   0.810
35420W        W88316   0.082  22.554   8.932
35421W        W88317  27.337  33.858   9.701
35422W        W88318   6.533  33.874   8.598
35423W        W88319   3.382  24.211   1.315
35424W        W88320  35.047   2.258   0.764
35425W        W88321  15.280  23.877   2.482
35426W        W88322  17.650   9.383   2.620
35427W        W88323  17.534  18.996   0.890
35428W        W88324  18.945  29.678   2.971
35429W        W88325   3.305   6.350   3.714
35430W        W88326   9.533  25.396  10.219
35431W        W88327  12.236  21.250   7.934
35432W        W88328  22.006  13.936   8.121
35433W        W88329   7.357   8.419   1.370
35434W        W88330  29.028   4.187   0.846
35435W        W88331  16.680   9.263   2.862
35436W        W88332  21.093  31.687   1.193
35437W        W88333  22.552   7.517   7.989
35438W        W88334   4.677  31.359   7.781
35439W        W88335   2.435  12.862   0.861
35440W        W88336  13.279  28.393   9.102
35441W        W88337   1.344  19.155   9.922
35442W        W88338  20.804   3.925   0.243
35443W        W88339   4.617  30.274   9.956
35444W        W88340   3.981  23.578   7.444
35445W        W88341   2.554  32.571   0.937
35446W        W88342   6.284  12.273   1.527
35447W        W88343  21.512  23.559   9.542
35448W        W88344   6.940  22.901   3.704
35449W        W88345   5.495  10.558   1.719
35450W        W88346   2.142  34.590   7.900
35451W        W88347  11.034   3.529   9.374
35452W        W88348  17.907  32.912  10.013
35453W        W88349  23.722  12.510   0.873
35454W        W88350  19.171  17.728   2.819
35455W        W88351   8.361  35.860   0.482
35456W        W88352  30.744  30.551   2.040
35457W        W88353  34.770  14.101   8.378
35458W        W88354   5.899  32.239   9.698
35459W        W88355   3.460   4.913   0.601
35460W        W88356   2.288   2.709   8.337
35461W        W88357   5.899   7.126   9.886
35462W        W88358  14.846  34.873  10.228
35463W        W88359  26.415  16.659   7.754
35464W        W88360   2.893  15.280   0.722
35465W        W88361  27.215  12.611   9.186
35466W        W88362  12.455  23.197   1.792
35467W        W88363   7.466  17.855   3.404
35468W        W88364  19.405  19.720  10.067
35469W        W88365  17.521   2.187   1.582
35470W        W88366  28.377   7.006   9.200
35471W        W88367   8.377  27.006   2.373
35472W        W88368   1.402  35.969   0.899
35473W        W88369  17.759   8.026   9.288
35474W        W88370  15.506  31.755   0.630
35475W        W88371  22.278  29.957   2.818
35476W        W88372   9.913  33.819   1.936
35477W        W88373  19.908   5.159   7.566
35478W        W88374   8.822  35.062   1.063
35479W        W88375  22.508   4.444   8.379
35480W        W88376   8.903  34.134   1.352
35481W        W88377  12.042  35.940   2.273
35482W        W88378  10.653  21.611   2.883
35483W        W88379  18.723  29.895   8.236
35484W        W88380  19.675  32.375   2.429
35485W        W88381   4.264  33.904   8.012
35486W        W88382  25.147  21.575   0.287
35487W        W88383   6.101  11.729   8.646
35488W        W88384  27.676  19.125   1.220
35489W        W88385  30.681  18.926   7.310
35490W        W88386   7.883  22.649   2.921
35491W        W88387  10.173  18.836   3.200
35492W        W88388  32.974   3.309   9.747
35493W        W88389  22.995  20.193  10.110
35494W        W88390  25.068  23.561  10.308
35495W        W88391  26.765  34.985   1.635
35496W        W88392  32.538  33.308   3.418
35497W        W88393   1.995   5.244   3.413
35498W        W88394  24.982  25.490   3.073
35499W        W88395  17.604   1.177   8.628
35500W        W88396  24.610  30.575   1.978
35501W        W88397  30.777  24.415   9.948
35502W        W88398  12.979  27.483   1.696
35503W        W88399  32.785   3.402   7.381
35504W        W88400   2.303  33.408   0.280
35505W        W88401  12.266   3.171   7.377
35506W        W88402  18.829  15.973  10.307
35507W        W88403   2.841  11.039   2.144
35508W        W88404  22.567  12.780   0.340
35509W        W88405  12.687   1.609   3.098
35510W        W88406  35.709  10.497   8.820
35511W        W88407  15.291  15.931   8.714
35512W        W88408  22.470  21.449   2.485
35513W        W88409  21.188  27.374   2.307
35514W        W88410   7.289   6.291   9.533
35515W        W88411  20.769  16.387   2.820
35516W        W88412  34.818  19.779   1.478
35517W        W88413  27.388   0.313   2.436
35518W        W88414  11.263  35.486   2.744
35519W        W88415  16.211  20.365   2.812
35520W        W88416  22.288   3.358   7.466
35521W        W88417   5.744  19.180   1.598
35522W        W88418  20.687  23.535   7.639
35523W        W88419  33.761  22.243   9.832
35524W        W88420  14.034  25.455   9.098
35525W        W88421   4.192  26.866   7.389
35526W        W88422  22.321  13.502   2.976
35527W        W88423  26.434  26.785   1.189
35528W        W88424  15.114  29.123   3.098
35529W        W88425  27.412  35.602   8.072
35530W        W88426  24.676   2.439   9.752
35531W        W88427   5.243   3.943   2.164
35532W        W88428  24.539   8.656   8.664
35533W        W88429  15.412   9.332   2.405
35534W        W88430   0.348  28.896   8.952
35535W        W88431  34.257  28.078   1.655
35536W        W88432  11.040  29.583   9.988
35537W        W88433  26.031  31.392   0.221
35538W        W88434   9.046  27.713   8.101
35539W        W88435  34.697  22.593   1.865
35540W        W88436  24.475  27.842   9.657
35541W        W88437   3.581  33.058   0.890
35542W        W88438  13.545   6.845  10.326
35543W        W88439  27.896  27.147   8.702
35544W        W88440  28.591   8.605   2.303
35545W        W88441  16.723  33.380   2.307
35546W        W88442   6.687  22.839   1.790
35547W        W88443   0.695  13.771   0.239
35548W        W88444  15.379  11.539   9.841
35549W        W88445  17.615   1.271  10.331
35550W        W88446   0.558   7.035   2.958
35551W        W88447  22.937  28.214   8.336
35552W        W88448   3.532  27.357   7.868
35553W        W88449  33.161  21.271   8.368
35554W        W88450  29.076  34.673   1.596
35555W        W88451   4.858  12.711   2.265
35556W        W88452   2.222  16.574   3.192
35557W        W88453  27.622   8.942   1.212
35558W        W88454  26.108   7.785   8.534
35559W        W88455  25.207  32.892   1.783
35560W        W88456  17.224  13.281   1.188
35561W        W88457   1.569   1.127   7.708
35562W        W88458  17.503  18.446   2.153
35563W        W88459   6.664  33.304   9.009
35564W        W88460  23.615  23.569   3.454
35565W        W88461  20.529   1.999   9.907
35566W        W88462  24.800  11.472   8.945
35567W        W88463  20.970  29.293   7.777
35568W        W88464  24.893  12.046   7.677
35569W        W88465  16.962  24.366   0.280
35570W        W88466  23.581  10.088   1.727
35571W        W88467  13.077  21.213   9.014
35572W        W88468  15.566  29.172   0.267
35573W        W88469  24.125  21.667   8.653
35574W        W88470   8.843  27.286   0.748
35575W        W88471   9.183  26.543   6.960
35576W        W88472  27.717  11.740  10.028
35577W        W88473  11.843   5.260   0.235
35578W        W88474  13.511  18.871   0.890
35579W        W88475  26.504   5.024  10.289
35580W        W88476  10.634  23.329   7.773
35581W        W88477  14.985  21.370   7.944
35582W        W88478  27.241  29.052  10.078
35583W        W88479  17.474   8.961   1.363
35584W        W88480  35.833  26.639   3.182
35585W        W88481  12.726  29.080   9.251
35586W        W88482  13.478  28.970   3.001
35587W        W88483  19.233  21.686   8.756
35588W        W88484  13.622  25.668   9.184
35589W        W88485   9.754  32.064   8.615
35590W        W88486  31.171   8.635   9.470
35591W        W88487  25.439   6.982   1.199
35592W        W88488  35.228  34.281   7.118
35593W        W88489  14.477  14.849   2.937
35594W        W88490  14.681   5.306   8.176
35595W        W88491   4.467  12.160   3.387
35596W        W88492  19.263  13.993   1.113
35597W        W88493  15.194   7.564   9.363
35598W        W88494   6.760   8.346   1.633
35599W        W88495  26.712  14.298   1.861
35600W        W88496  18.943  15.427   1.974
35601W        W88497   3.023  22.602   8.143
35602W        W88498  19.967  13.811   8.352
35603W        W88499   6.094  33.764   8.796
35604W        W88500  13.663  34.696   0.712
35605W        W88501  28.450   8.797   8.630
35606W        W88502  26.152  15.575   8.933
35607W        W88503  35.802   8.044   8.665
35608W        W88504  25.451  15.999   2.727
35609W        W88505   7.394  33.667   7.659
35610W        W88506  20.796  15.522   9.201
35611W        W88507  33.509  17.102   1.389
35612W        W88508   9.062  29.404   2.044
35613W        W88509  31.481  17.236   1.001
35614W        W88510  21.126  26.012   7.801
35615W        W88511  35.969  25.130   0.305
35616W        W88512  18.362  20.646   1.033
35617W        W88513  25.647   6.298   1.728
35618W        W88514  25.283   2.606   8.779
35619W        W88515  27.577  24.227   0.953
35620W        W88516  17.341  18.008   1.827
35621W        W88517  27.296  21.854   9.778
35622W        W88518  27.177  20.714   2.424
35623W        W88519  21.854  31.924   3.314
35624W        W88520  24.056  34.408   2.385
35625W        W88521  15.373  29.685   8.014
35626W        W88522  18.807  11.892   1.627
35627W        W88523  30.580  12.817   9.673
35628W        W88524  22.118  22.419   0.063
35629W        W88525   2.936  27.233   0.860
35630W        W88526  33.467  23.269  10.005
35631W        W88527  11.355   2.244   0.947
35632W        W88528  31.666  21.780   0.987
35633W        W88529   5.353  23.155   0.438
35634W        W88530  34.139  30.196   1.731
35635W        W88531   9.944  23.534   8.186
35636W        W88532   0.635   9.320   7.702
35637W        W88533   3.775  35.026   3.202
35638W        W88534   9.365  25.326   2.022
35639W        W88535  13.615   7.544   3.287
35640W        W88536  24.867  14.827   0.092
35641W        W88537  25.558   3.871   1.117
35642W        W88538  27.849  15.891   2.220
35643W        W88539  33.943  25.391   2.478
35644W        W88540  14.521   3.420   0.232
35645W        W88541  35.407  12.500   2.824
35646W        W88542  27.268  23.386   8.561
35647W        W88543  26.511   1.932   9.842
35648W        W88544  32.709  30.189   9.141
35649W        W88545  22.360   1.765   7.107
35650W        W88546  21.798  16.120   8.149
35651W        W88547   0.514   8.948   0.025
35652W        W88548  16.960  17.597   9.642
35653W        W88549  14.406  18.916   7.672
35654W        W88550   8.341  14.574   7.962
35655W        W88551   6.522  23.741   1.657
35656W        W88552  32.722  15.205  10.066
35657W        W88553  12.100  12.692   3.245
35658W        W88554  29.543  27.627   7.484
35659W        W88555  32.413  25.747   1.641
35660W        W88556  13.571  23.473   1.016
35661W        W88557   0.821  35.032   0.733
35662W        W88558   8.253   3.435   7.514
35663W        W88559  19.474   6.292   0.530
35664W        W88560  30.160  33.889   6.858
35665W        W88561  17.463  14.269   2.470
35666W        W88562  19.944  21.923   2.467
35667W        W88563  10.770  35.742   8.116
35668W        W88564   2.133  27.204   8.881
35669W        W88565  32.493   3.445   2.558
35670W        W88566  35.730  35.800   8.261
35671W        W88567  18.356  29.261   0.815
35672W        W88568   6.563   4.287   9.002
35673W        W88569   5.728  17.001   1.694
35674W        W88570  24.607  14.459   2.793
35675W        W88571   8.487  34.136   9.901
35676W        W88572  11.374   9.611  10.206
35677W        W88573  20.368  28.441   0.348
35678W        W88574   0.058  31.506   0.748
35679W        W88575  13.907  20.426   1.744
35680W        W88576  24.210   5.573  10.309
35681W        W88577  12.053   5.193   0.677
35682W        W88578   2.888  29.584   3.071
35683W        W88579  21.206   0.819   8.779
35684W        W88580  30.789  34.207  10.173
35685W        W88581  33.027  30.747  10.060
35686W        W88582  25.651   9.186   2.144
35687W        W88583  25.739  14.419   9.401
35688W        W88584  26.289  29.863   7.320
35689W        W88585  23.715   7.902   2.242
35690W        W88586  20.651  17.980   0.209
35691W        W88587  28.053  22.028   0.185
35692W        W88588  14.148  27.377   7.666
35693W        W88589  12.408   9.635   9.824
35694W        W88590   1.132  33.222   1.027
35695W        W88591  21.134   6.128   0.110
35696W        W88592   7.426  21.318   0.385
35697W        W88593  18.301   5.290   2.665
35698W        W88594  10.374  20.360   8.625
35699W        W88595  28.137  21.098   2.320
35700W        W88596   3.175  15.822   9.727
35701W        W88597  19.663  32.397   9.229
35702W        W88598   7.416  20.015   2.214
35703W        W88599  27.597  35.221   2.412
35704W        W88600   1.094  17.250   0.304
35705W        W88601  21.157   7.445   8.906
35706W        W88602  22.140   3.987   2.542
35707W        W88603  18.331  15.445   3.046
35708W        W88604  28.643  24.773   9.120
35709W        W88605   1.278  13.108   1.185
35710W        W88606   9.146  15.819   8.741
35711W        W88607   5.644  16.096   2.729
35712W        W88608  11.448  12.862   2.674
35713W        W88609  18.474  25.302   2.064
35714W        W88610  23.794  22.708   2.836
35715W        W88611  21.558  31.451   0.438
35716W        W88612  26.214  35.017   1.658
35717W        W88613   9.413  15.808   9.951
35718W        W88614   7.425  19.835   0.567
35719W        W88615  33.138  15.304   2.118
35720W        W88616   0.383  28.045   6.987
35721W        W88617  22.041  28.505   9.560
35722W        W88618  23.033   0.551   1.480
35723W        W88619  33.837  13.001   1.726
35724W        W88620  30.626  24.296   8.601
35725W        W88621   4.186  18.462   9.015
35726W        W88622  31.988  16.945   2.917
35727W        W88623  12.570  25.928   8.091
35728W        W88624  35.722   6.712   9.727
35729W        W88625  24.875  25.142   9.636
35730W        W88626   5.056  19.931   0.490
35731W        W88627  12.071  34.430   1.283
35732W        W88628  19.092  29.953   1.196
35733W        W88629  33.668  30.114   8.883
35734W        W88630  23.307   7.035   7.886
35735W        W88631   0.758  26.134   9.676
35736W        W88632  29.522  29.692   7.149
35737W        W88633  10.295  26.870  10.062
35738W        W88634   9.791  33.348   1.688
35739W        W88635  28.261  28.159   1.101
35740W        W88636  25.644   0.509   9.057
35741W        W88637  21.996  32.900   8.328
35742W        W88638  27.989   8.916   1.575
35743W        W88639   7.817  35.857   2.493
35744W        W88640   1.044  24.123   1.107
35745W        W88641  29.574  30.075   8.677
35746W        W88642   5.467  20.527  10.141
35747W        W88643  23.447   7.060   0.390
35748W        W88644   8.728  11.209   0.791
35749W        W88645  30.076   6.031   1.058
35750W        W88646  10.861   9.213   8.551
35751W        W88647   9.360  28.485   7.385
35752W        W88648  31.018  35.027   3.343
35753W        W88649  21.311  34.276   2.856
35754W        W88650   8.386   4.118   2.464
35755W        W88651   0.710  21.424   3.416
35756W        W88652  32.644  25.948   0.719
35757W        W88653   7.909  25.731   9.044
35758W        W88654  25.292  32.051   9.478
35759W        W88655  22.168  13.468   2.064
35760W        W88656   9.899  11.563   3.254
35761W        W88657   0.497  16.258   8.990
35762W        W88658  32.164   3.591   0.832
35763W        W88659  20.505  25.375   0.338
35764W        W88660  27.788  13.741   1.528
35765W        W88661   8.529  27.190   9.090
35766W        W88662  12.954  34.754   8.460
35767W        W88663   0.736  28.410  10.125
35768W        W88664   6.132  24.599   1.320
35769W        W88665  30.149   5.308   9.241
35770W        W88666   6.335  17.007   8.764
35771W        W88667   7.787  23.896   1.289
35772W        W88668  29.206  21.032   1.608
35773W        W88669  24.012   4.734   0.023
35774W        W88670  21.516   8.885   9.294
35775W        W88671   1.545  14.727   2.589
35776W        W88672   4.507  17.183   1.718
35777W        W88673   5.157  22.677   0.117
35778W        W88674  24.661  31.737   0.259
35779W        W88675  30.954  11.978   7.749
35780W        W88676  12.327  30.950   1.490
35781W        W88677   8.753   0.405  10.112
35782W        W88678   6.413  33.682   0.819
35783W        W88679  26.619  11.457   9.883
35784W        W88680  34.080  30.110   7.996
35785W        W88681  10.404   7.733  10.027
35786W        W88682  21.329   0.541   1.601
35787W        W88683  30.233  19.907  10.312
35788W        W88684  35.783  24.623   1.429
35789W        W88685  34.796  21.411   9.984
35790W        W88686   8.425  24.217   3.292
35791W        W88687  25.616  28.166   1.789
35792W        W88688   4.764  24.433   1.328
35793W        W88689   2.674  19.326   1.675
35794W        W88690   5.517   2.222   7.789
35795W        W88691  25.015  27.611   9.754
35796W        W88692  29.419  26.372   9.904
35797W        W88693   7.546  15.833   3.786
35798W        W88694  26.420  11.218   8.183
35799W        W88695  20.075  34.931   2.323
35800W        W88696  30.512  10.236   1.672
35801W        W88697   9.935   7.458   7.610
35802W        W88698  15.392  26.958   2.685
35803W        W88699  31.760  17.567   8.311
35804W        W88700  20.171  25.045   8.628
35805W        W88701  23.236  12.908   1.931
35806W        W88702   3.735  25.983   7.548
35807W        W88703  24.942  31.570   1.527
35808W        W88704   7.554  26.011   9.055
35809W        W88705   7.487   9.903   1.241
35810W        W88706  32.733   9.715   1.814
35811W        W88707  31.662  27.320   8.524
35812W        W88708   8.253  24.092   0.201
35813W        W88709  20.540  18.465   0.867
35814W        W88710  15.251  22.405   0.920
35815W        W88711   4.250  11.613   1.971
35816W        W88712  31.603   3.551   9.665
35817W        W88713  13.710  19.978   8.693
35818W        W88714  14.334  18.067   2.120
35819W        W88715   2.248  31.838   9.224
35820W        W88716   4.355  30.343   2.254
35821W        W88717  11.187  24.037  10.199
35822W        W88718  20.984   1.904   7.943
35823W        W88719  18.867  35.931   9.220
35824W        W88720   7.214  19.572   2.387
35825W        W88721  13.409   0.614   0.481
35826W        W88722  15.267  26.515   2.323
35827W        W88723  22.625   3.453   9.892
35828W        W88724   4.155  20.724   1.831
35829W        W88725   0.044  33.107   3.283
35830W        W88726   1.581   6.531   2.189
35831W        W88727  26.591   0.756   8.103
35832W        W88728   5.840   7.303   1.119
35833W        W88729   2.643  19.185   7.972
35834W        W88730  15.252  13.306   3.187
35835W        W88731  13.978  30.764   7.431
35836W        W88732  33.198   2.509   0.634
35837W        W88733  12.417  16.146   2.100
35838W        W88734   3.846  16.860   9.559
35839W        W88735   5.404  30.431   1.199
35840W        W88736  16.073  32.301   2.526
35841W        W88737   9.984  23.645   1.782
35842W        W88738   0.420  24.897   3.213
35843W        W88739   4.964  17.772   2.172
35844W        W88740  32.161  18.882   9.282
35845W        W88741  12.627  35.874   8.843
35846W        W88742   7.698   3.437   9.091
35847W        W88743  15.863  13.189   3.090
35848W        W88744  26.604  27.388   8.095
35849W        W88745   2.625   0.790   2.004
35850W        W88746  27.677   0.754   3.575
35851W        W88747  13.962  26.021   1.414
35852W        W88748  10.262  17.849   7.588
35853W        W88749   6.068  29.349   3.509
35854W        W88750  33.905   7.672   8.977
35855W        W88751  23.987  11.861   8.695
35856W        W88752  31.151  29.550   3.466
35857W        W88753  22.640  12.412   0.612
35858W        W88754  27.334  25.318   7.448
35859W        W88755  17.227  18.191   0.839
35860W        W88756  24.299  20.565  10.259
35861W        W88757   2.181  14.584   2.579
35862W        W88758   8.493  33.961   8.395
35863W        W88759  30.178  32.868   0.422
35864W        W88760  25.207  11.743   0.025
35865W        W88761  22.604  22.512  10.266
35866W        W88762  25.833   9.044   2.955
35867W        W88763  28.834  23.814   2.013
35868W        W88764  21.787  33.621   0.381
35869W        W88765  14.339  17.393   2.930
35870W        W88766   5.758  10.886   0.733
35871W        W88767  35.510  28.228   7.319
35872W        W88768  32.435   3.808   1.701
35873W        W88769  26.342  22.947   2.356
35874W        W88770   1.111  15.927   2.567
35875W        W88771  26.943  13.629   9.145
35876W        W88772  36.000  25.427   1.531
35877W        W88773   1.866   6.261   8.657
35878W        W88774  30.417  14.248   9.101
35879W        W88775   5.467  12.576   2.702
35880W        W88776  19.616   4.956   0.172
35881W        W88777   6.815  34.430   0.169
35882W        W88778  17.426  30.845   2.309
35883W        W88779  18.814  25.940   2.019
35884W        W88780  35.246   1.519   9.999
35885W        W88781  13.322  26.299   0.776
35886W        W88782  30.095  26.610   0.373
35887W        W88783  35.856  28.397   8.337
35888W        W88784   8.280   7.991   2.034
35889W        W88785  18.801   0.960   1.187
35890W        W88786   3.742   1.265   8.460
35891W        W88787  11.390   4.091   2.827
35892W        W88788   3.552   4.076   8.064
35893W        W88789  14.621  35.996   3.506
35894W        W88790  21.472  35.493   1.776
35895W        W88791  27.575   2.956   0.382
35896W        W88792  11.563  13.573   7.368
35897W        W88793  30.710  15.239   1.279
35898W        W88794  31.939  18.006   9.724
35899W        W88795   5.336  32.653   9.564
35900W        W88796   3.865   0.578   1.599
35901W        W88797  12.337  23.453   3.423
35902W        W88798   5.788   4.761   3.277
35903W        W88799  23.696  15.815   9.289
35904W        W88800   0.119  32.454   8.372
35905W        W88801   1.350  18.203   0.530
35906W        W88802  31.537  19.328   8.818
35907W        W88803  23.233  17.233   3.118
35908W        W88804  27.890  34.165   7.280
35909W        W88805  21.262  25.284   0.702
35910W        W88806  13.630  21.900   0.069
35911W        W88807   5.256  14.592   1.097
35912W        W88808  25.352  29.832   2.224
35913W        W88809   3.040  26.731   8.845
35914W        W88810  35.111   9.563   8.005
35915W        W88811  35.424   9.708   8.764
35916W        W88812  20.440  21.243   9.398
35917W        W88813   7.920   4.184   2.341
35918W        W88814  15.376  32.887   8.100
35919W        W88815  31.916   7.931   3.078
35920W        W88816  30.879  14.216   7.996
35921W        W88817  18.866  16.978   2.351
35922W        W88818  11.105   1.734   8.741
35923W        W88819  24.690   1.936   7.853
35924W        W88820   6.256  17.606  10.185
35925W        W88821   4.648  11.186   7.824
35926W        W88822  20.777  30.808   3.714
35927W        W88823  24.134  30.256   1.810
35928W        W88824  24.999  13.072   1.181
35929W        W88825  13.328  16.989   9.276
35930W        W88826   3.075  10.550   2.678
35931W        W88827  22.204  28.854   1.298
35932W        W88828  24.106  35.873   8.169
35933W        W88829  11.772  29.728   2.183
35934W        W88830  22.625  15.867   8.340
35935W        W88831  15.894  14.269   1.566
35936W        W88832   5.112  34.282   7.465
35937W        W88833  19.190  20.225   2.145
35938W        W88834  19.260   7.153   8.907
35939W        W88835   1.810  27.911   1.678
35940W        W88836  21.814  21.016   8.984
35941W        W88837  11.701   0.893   7.597
35942W        W88838  20.477   9.674   1.794
35943W        W88839  16.917  29.882   0.048
35944W        W88840   6.380  32.622   7.396
35945W        W88841  14.937  12.867   3.157
35946W        W88842  23.842  24.054   9.077
35947W        W88843  20.431  20.306   2.541
35948W        W88844  26.165  11.855   8.645
35949W        W88845   2.613   2.774   7.898
35950W        W88846  23.464   0.874   1.502
35951W        W88847   1.956  10.232   7.888
35952W        W88848  27.793  26.406   2.376
35953W        W88849  27.159  16.079   8.751
35954W        W88850  35.562  17.042   1.489
35955W        W88851   0.616  31.089   8.680
35956W        W88852   6.832   1.946   9.927
35957W        W88853  30.281  15.738   0.418
35958W        W88854  17.785  16.193   8.626
35959W        W88855  35.141  22.187   2.340
35960W        W88856   3.489  19.334   3.526
35961W        W88857  17.638  11.892   8.506
35962W        W88858  25.509  29.277   9.233
35963W        W88859  15.821  16.318   1.943
35964W        W88860  22.635  12.744   7.190
35965W        W88861  21.733  30.568   0.904
35966W        W88862  29.719  13.871   1.487
35967W        W88863   2.711  15.706   8.429
35968W        W88864  27.285  18.506   1.008
35969W        W88865   6.461  19.033   8.751
35970W        W88866  10.927  30.814   1.283
35971W        W88867  35.809  16.927   3.969
35972W        W88868   7.790  17.518   1.210
35973W        W88869  25.083   5.295   1.159
35974W        W88870   6.513  20.933   8.661
35975W        W88871   0.216  27.734   0.613
35976W        W88872  26.351  27.197   3.326
35977W        W88873  12.916  21.454   1.101
35978W        W88874  17.225  14.232   8.296
35979W        W88875  27.862  34.043   0.454
35980W        W88876  18.948   8.628   3.171
35981W        W88877  35.112  17.949   3.616
35982W        W88878  31.657   9.802   0.976
35983W        W88879   2.433   5.062   2.227
35984W        W88880  20.854  27.280   3.118
35985W        W88881  25.020  10.928   0.849
35986W        W88882  13.101  21.945   3.396
35987W        W88883  22.448  28.903   0.801
35988W        W88884  32.251  33.057   2.309
35989W        W88885  30.995   4.390   1.292
35990W        W88886  26.165  34.801   3.022
35991W        W88887  34.719  19.832   0.961
35992W        W88888  12.680   0.240   1.934
35993W        W88889  34.319  20.759  10.014
35994W        W88890  23.049  19.147   8.557
35995W        W88891  10.914  10.846   1.623
35996W        W88892  27.006  33.516   9.799
35997W        W88893  25.442  14.845   9.551
35998W        W88894   0.070  24.882   9.024
35999W        W88895  25.111  31.198   2.469
36000W        W88896  27.131   8.526   0.235
36001W        W88897  34.168  26.690   1.429
36002W        W88898  29.308  29.785   8.385
36003W        W88899  28.774   4.797   0.103
36004W        W88900  21.664   7.797   0.284
36005W        W88901   3.295  25.963   8.587
36006W        W88902  14.109  16.199   2.717
36007W        W88903   5.676  34.915   0.262
36008W        W88904  32.116  20.992   0.724
36009W        W88905  34.646  22.167   0.878
36010W        W88906  34.621  20.885   8.407
36011W        W88907  35.587   0.411   0.699
36012W        W88908   1.115   0.044  10.254
36013W        W88909  29.002   2.702   2.507
36014W        W88910  12.968  23.500   8.908
36015W        W88911  30.543  13.877   9.348
36016W        W88912  29.753  12.104   0.468
36017W        W88913  17.746  24.811   2.892
36018W        W88914   6.871  29.230   0.627
36019W        W88915  33.410  35.211   1.910
36020W        W88916  24.555  34.761   8.311
36021W        W88917  34.224   3.057   8.442
36022W        W88918   2.296   2.563   9.450
36023W        W88919   9.381  10.901   2.435
36024W        W88920  10.516  23.849   7.682
36025W        W88921  22.454  11.804   7.462
36026W        W88922  23.309   7.021   8.369
36027W        W88923  21.946   1.971   0.183
36028W        W88924  12.110  32.577  10.213
36029W        W88925  15.131  22.468   3.236
36030W        W88926  23.791   8.645   1.170
36031W        W88927  31.678  13.802   0.923
36032W        W88928  26.197   9.905   1.906
36033W        W88929  16.228   3.518  10.134
36034W        W88930   7.150   8.600   8.756
36035W        W88931  24.947  12.780   9.526
36036W        W88932  20.245   5.391   1.603
36037W        W88933  35.644   2.895   3.320
36038W        W88934  12.377  16.959   9.125
36039W        W88935   7.586  32.817   8.908
36040W        W88936  20.596  35.549   0.629
36041W        W88937   6.285  27.841   2.410
36042W        W88938  34.083  26.380   3.807
36043W        W88939  33.530  17.502   9.107
36044W        W88940  30.492  33.454   3.357
36045W        W88941  34.023   2.101   3.544
36046W        W88942   9.215  14.997   2.889
36047W        W88943   5.856   2.824   2.238
36048W        W88944  34.846  15.220   8.808
36049W        W88945  29.742  30.858   0.195
36050W        W88946  33.233  26.788   0.686
36051W        W88947   4.760  30.006   0.104
36052W        W88948  35.902  24.570   1.940
36053W        W88949  11.200  21.573   2.816
36054W        W88950  10.836   7.927  10.290
36055W        W88951  35.329  17.940   0.892
36056W        W88952  29.840   1.372   0.634
36057W        W88953   2.446  29.509   6.943
36058W        W88954  14.321  33.477   8.992
36059W        W88955  20.567  26.910   3.342
36060W        W88956  23.212  15.845   3.755
36061W        W88957  29.381  34.305   2.945
36062W        W88958  22.301  28.926   2.693
36063W        W88959  32.400  35.332   1.980
36064W        W88960  13.250   1.070   2.831
36065W        W88961  13.504  12.884   2.014
36066W        W88962  14.483  10.427   7.686
36067W        W88963  13.582   7.534   9.798
36068W        W88964  11.113   1.779   6.721
36069W        W88965  26.248  31.035   9.182
36070W        W88966  25.826  17.371   8.462
36071W        W88967   9.771  29.460  10.032
36072W        W88968  32.051  20.357   0.488
36073W        W88969  29.421  27.930   8.486
36074W        W88970  28.407  29.916   0.697
36075W        W88971  27.613  28.021   6.773
36076W        W88972   1.448   4.593   8.850
36077W        W88973  19.512  22.307   0.595
36078W        W88974  10.583   6.866   7.269
36079W        W88975   4.446  15.446   8.996
36080W        W88976  14.981   8.025   8.488
36081W        W88977   0.415  13.879   2.784
36082W        W88978  13.386  20.528   8.350
36083W        W88979  17.813  19.285   4.233
36084W        W88980  26.203   6.223   8.358
36085W        W88981  26.603  34.781   2.168
36086W        W88982  35.379  15.028   0.888
36087W        W88983  24.963  33.210   0.222
36088W        W88984  33.289  29.503   0.827
36089W        W88985  29.370  33.603   2.185
36090W        W88986   7.892  21.630   3.385
36091W        W88987  16.313   7.488   2.643
36092W        W88988  21.519  27.223   7.212
36093W        W88989  20.122  14.607   9.571
36094W        W88990  16.797  33.586   8.524
36095W        W88991  13.095  10.215   9.726
36096W        W88992  30.742  29.278   8.793
36097W        W88993  23.102  17.839  10.205
36098W        W88994  11.788  32.984   3.668
36099W        W88995   2.844   4.173   1.091
36100W        W88996  32.813  24.890   9.385
36101W        W88997  28.596  35.050   0.943
36102W        W88998   9.635  23.227  10.156
36103W        W88999   4.238   9.739   0.573
36104W        W89000  21.559   3.866   8.060
36105W        W89001  12.471  34.034   1.247
36106W        W89002  33.460  14.935   9.140
36107W        W89003   2.896  29.814   3.538
36108W        W89004   2.142   8.013   2.340
36109W        W89005  10.124  25.724   9.859
36110W        W89006  11.739   5.811   0.270
36111W        W89007  34.785  28.382   3.847
36112W        W89008   0.980  15.717   9.586
36113W        W89009  27.965  11.677   0.979
36114W        W89010  23.454   1.507  10.213
36115W        W89011  18.409  12.379   9.923
36116W        W89012   4.816   9.373   1.573
36117W        W89013  21.713  14.464   9.332
36118W        W89014  22.614  17.715   3.579
36119W        W89015  20.065  22.054   1.917
36120W        W89016  22.269   6.646   8.889
36121W        W89017  15.537  32.663   0.432
36122W        W89018  27.432  19.514   0.186
36123W        W89019  35.072   3.791  10.145
36124W        W89020  14.003   9.127   0.940
36125W        W89021   3.413   1.310   0.925
36126W        W89022  13.308  19.652   9.382
36127W        W89023   3.854  19.878   9.335
36128W        W89024  12.961  16.517   2.812
36129W        W89025   4.019  15.294   0.732
36130W        W89026  28.232  35.410   0.683
36131W        W89027  13.363  34.143   1.533
36132W        W89028  33.411  28.906   8.291
36133W        W89029  22.956   4.958   7.919
36134W        W89030   5.481  19.901   7.220
36135W        W89031  10.223  21.594   2.562
36136W        W89032  34.778  25.506   2.066
36137W        W89033  14.298  29.223   9.446
36138W        W89034  21.941  27.241   1.782
36139W        W89035   9.264  23.971   7.226
36140W        W89036  29.280  16.600   2.312
36141W        W89037  30.322   6.443  10.089
36142W        W89038  33.901  27.258   9.471
36143W        W89039   5.270  25.274   1.413
36144W        W89040  34.761  16.052   9.692
36145W        W89041  34.128  15.521   8.742
36146W        W89042  11.334  25.379   2.415
36147W        W89043  34.423  23.970   9.269
36148W        W89044  12.086  25.919   7.443
36149W        W89045   5.221  29.578   8.877
36150W        W89046  13.548  13.013   3.408
36151W        W89047  16.909  12.421   2.237
36152W        W89048  24.491  35.558   0.529
36153W        W89049  24.429   5.833   1.024
36154W        W89050  15.704  33.515   1.358
36155W        W89051   8.594   1.088   0.521
36156W        W89052  18.695   7.933   8.922
36157W        W89053   1.634  16.889   1.782
36158W        W89054  16.200  17.151   0.342
36159W        W89055   2.844  29.794   1.597
36160W        W89056   5.035   0.076   2.391
36161W        W89057   8.573  16.327   0.085
36162W        W89058   1.715  16.493   3.122
36163W        W89059  10.446   6.287   7.244
36164W        W89060   9.832   4.594   9.153
36165W        W89061  15.194   5.816   9.284
36166W        W89062   9.262  16.753   2.935
36167W        W89063   0.201   4.925   9.963
36168W        W89064  26.435  30.955   7.186
36169W        W89065  15.955   4.456   0.944
36170W        W89066  35.486  14.855   2.988
36171W        W89067  22.373   8.796   0.895
36172W        W89068  11.211   8.278   8.380
36173W        W89069  21.974  13.652   7.235
36174W        W89070   6.151  29.357   9.067
36175W        W89071  27.673   1.255   8.786
36176W        W89072  26.259  14.436   3.071
36177W        W89073  33.524  21.526   8.641
36178W        W89074  25.835  34.067   7.278
36179W        W89075  24.894   7.175   8.108
36180W        W89076  31.654   1.981   1.050
36181W        W89077   3.107  29.733   9.086
36182W        W89078   0.369  23.449   1.354
36183W        W89079  13.089   8.883   3.248
36184W        W89080  34.013  29.013   2.561
36185W        W89081  21.676  20.549   7.681
36186W        W89082  18.709  31.509   9.936
36187W        W89083  14.596  30.519   0.303
36188W        W89084  31.284  23.123   7.825
36189W        W89085   9.637  19.212   1.913
36190W        W89086   6.641   1.835   0.020
36191W        W89087  26.409   4.519   0.679
36192W        W89088  23.626  24.856   2.271
36193W        W89089   6.156  17.338   8.347
36194W        W89090  25.048  31.327   8.055
36195W        W89091  14.173  15.012   3.319
36196W        W89092   1.689   4.248   9.562
36197W        W89093  15.339  34.890  10.014
36198W        W89094  25.949  20.566   1.741
36199W        W89095  17.059  18.895   2.427
36200W        W89096   6.464   3.982   2.264
36201W        W89097  25.952  30.630   0.773
36202W        W89098   6.633  17.132   3.131
36203W        W89099  26.590  32.292   9.488
36204W        W89100  25.641   4.102   9.306
36205W        W89101  27.728  20.413   0.849
36206W        W89102  25.418  19.242   8.055
36207W        W89103  34.011  16.676   0.446
36208W        W89104  35.981   6.135   0.396
36209W        W89105  15.254  34.282   1.849
36210W        W89106   5.112  11.786   0.355
36211W        W89107   3.502   6.437   9.969
36212W        W89108  23.090  12.126   9.186
36213W        W89109   3.574   1.982   9.463
36214W        W89110   3.772  19.192   9.307
36215W        W89111  14.404   5.855   2.121
36216W        W89112  10.216  24.507   9.173
36217W        W89113  34.675  26.401   8.595
36218W        W89114  28.392  28.455   0.216
36219W        W89115   7.142  18.767   9.925
36220W        W89116  35.604  31.248   8.881
36221W        W89117  19.824   5.414   9.093
36222W        W89118   5.981  35.342   1.360
36223W        W89119  17.228   6.520   7.858
36224W        W89120   1.954   5.045   2.493
36225W        W89121   0.017   4.449   2.554
36226W        W89122  34.988  31.323   3.998
36227W        W89123  17.630   4.813   2.459
36228W        W89124  24.872  32.635   0.254
36229W        W89125  25.473  24.369   8.037
36230W        W89126  11.242  13.479   0.072
36231W        W89127  18.020  21.714   2.978
36232W        W89128  23.179  34.236   8.770
36233W        W89129  24.921  33.514   0.591
36234W        W89130   2.372  28.411   2.967
36235W        W89131  33.602  35.755   8.375
36236W        W89132  35.060  20.226   1.578
36237W        W89133  21.664   3.088   3.200
36238W        W89134  35.469  27.672   0.312
36239W        W89135  23.961   8.525   8.071
36240W        W89136   6.744   0.205   0.793
36241W        W89137  26.478  15.400   8.509
36242W        W89138  12.201  24.514   0.921
36243W        W89139   3.597   5.339   1.718
36244W        W89140  16.271  35.260   9.864
36245W        W89141  31.951  12.939   1.545
36246W        W89142   4.096   1.777   0.314
36247W        W89143  18.650  12.046   2.101
36248W        W89144   0.219  11.526   9.544
36249W        W89145  32.788  35.224   2.340
36250W        W89146  11.231  21.407   0.935
36251W        W89147  29.623  13.488   9.081
36252W        W89148  31.805  16.144   3.161
36253W        W89149  31.252  28.660   8.647
36254W        W89150  33.344  11.522   7.184
36255W        W89151  32.890  22.641   8.799
36256W        W89152  24.286  11.986   9.609
36257W        W89153  12.549  25.743   7.458
36258W        W89154   6.469  35.203   8.455
36259W        W89155   0.393   1.689   1.041
36260W        W89156  26.894  12.580   3.555
36261W        W89157  30.345  32.568   0.009
36262W        W89158  29.742  12.804   9.011
36263W        W89159  34.062  23.279   1.692
36264W        W89160   7.817   0.723   8.193
36265W        W89161   6.438  35.880   3.042
36266W        W89162   8.993   5.535   8.871
36267W        W89163  35.932  26.059   2.376
36268W        W89164  23.638  14.981   2.264
36269W        W89165  20.304  24.405   0.636
36270W        W89166  11.297   9.307   2.722
36271W        W89167  23.928   3.131   7.709
36272W        W89168  28.924   6.814   8.573
36273W        W89169  34.716  13.666   8.642
36274W        W89170   2.999  15.552   1.624
36275W        W89171  11.137  20.366   8.789
36276W        W89172  22.419  24.199   8.863
36277W        W89173  17.571  15.065   9.966
36278W        W89174  19.682  13.276   7.670
36279W        W89175  24.099  27.069   2.686
36280W        W89176   3.729   9.129   3.666
36281W        W89177  22.062  32.139   0.980
36282W        W89178  27.787  15.500  10.295
36283W        W89179   7.853  19.399   9.072
36284W        W89180   6.729  16.655   2.001
36285W        W89181   7.163  29.087   8.494
36286W        W89182  20.097  31.761   0.198
36287W        W89183  27.361  13.315   3.379
36288W        W89184  21.391  16.664   7.481
36289W        W89185  14.330   5.518   9.018
36290W        W89186   9.945   6.490   9.489
36291W        W89187  27.797  16.763   0.562
36292W        W89188  13.316  14.835   0.780
36293W        W89189  23.516  21.872   2.897
36294W        W89190   3.908   9.794   8.040
36295W        W89191  23.359  12.545   2.294
36296W        W89192  10.465  29.608   1.581
36297W        W89193  22.404  23.937   0.071
36298W        W89194   8.441  22.629   9.354
36299W        W89195  10.784  22.060   9.608
36300W        W89196  21.976  35.496   0.724
36301W        W89197  33.647   8.928   8.316
36302W        W89198  10.877  15.736   3.741
36303W        W89199   2.263   7.860   8.824
36304W        W89200  32.421   6.096   1.047
36305W        W89201  15.333   9.489   1.917
36306W        W89202  15.599   2.278   7.494
36307W        W89203   0.328   0.630   0.752
36308W        W89204   8.042  29.892   1.085
36309W        W89205   2.534   2.223   2.386
36310W        W89206   8.758  31.617   0.124
36311W        W89207  23.026  22.027   2.999
36312W        W89208  27.381  35.975   0.095
36313W        W89209  27.870  10.092   9.136
36314W        W89210  28.310  11.889   7.908
36315W        W89211  34.454   0.296   2.271
36316W        W89212  30.209  15.649   8.900
36317W        W89213  13.308  26.959   0.912
36318W        W89214   0.038  15.085   1.697
36319W        W89215  12.652   3.885   3.293
36320W        W89216  15.547  10.112   9.917
36321W        W89217   3.383  23.434   8.851
36322W        W89218  21.102  26.983   9.323
36323W        W89219  31.062   2.130   9.199
36324W        W89220  30.173  28.659  10.001
36325W        W89221  10.778  25.163   8.644
36326W        W89222  11.401  23.591   0.009
36327W        W89223  25.930  10.530  10.067
36328W        W89224   7.891   4.795   7.927
36329W        W89225   6.571   9.699   1.214
36330W        W89226  35.620  30.207   7.432
36331W        W89227  13.027  32.902   0.479
36332W        W89228  32.481  33.640   1.706
36333W        W89229  22.258  27.560   1.345
36334W        W89230  28.912  20.986  10.045
36335W        W89231   3.822  18.275   9.567
36336W        W89232   3.225   4.144   0.477
36337W        W89233  27.070  25.084   8.010
36338W        W89234  17.198  35.748   0.639
36339W        W89235   8.625  15.712   2.470
36340W        W89236  27.071   4.207   9.453
36341W        W89237  20.500  21.356   7.340
36342W        W89238  12.800   3.076   7.272
36343W        W89239  29.341   5.349   2.461
36344W        W89240  12.806  10.871   3.647
36345W        W89241   6.580   7.974   0.282
36346W        W89242  10.879   1.213  10.022
36347W        W89243  26.027  24.750   0.976
36348W        W89244  19.642  31.265   0.857
36349W        W89245  30.331  25.940   1.218
36350W        W89246  22.027   7.633   9.841
36351W        W89247  27.507  16.581   7.941
36352W        W89248  21.989  13.074   2.262
36353W        W89249  20.829  25.873   1.664
36354W        W89250  35.087  22.492   8.990
36355W        W89251  28.218   3.722   1.432
36356W        W89252  30.039  22.236   3.391
36357W        W89253  10.121   6.152   3.365
36358W        W89254   5.286  18.472   8.118
36359W        W89255  24.111  22.836   0.818
36360W        W89256  18.258  35.479   8.573
36361W        W89257  12.315   1.069   8.763
36362W        W89258  10.886  20.857   1.198
36363W        W89259  21.432  32.453   2.756
36364W        W89260   4.312  14.725   9.590
36365W        W89261  35.372  31.534   3.448
36366W        W89262  19.700  23.379   2.213
36367W        W89263  33.233   5.708   9.203
36368W        W89264   2.737  15.060   2.705
36369W        W89265  25.464  32.753   7.721
36370W        W89266   0.105  13.893   2.312
36371W        W89267   1.297   2.293   8.622
36372W        W89268   0.049  31.405   9.831
36373W        W89269  29.651  35.804   8.931
36374W        W89270  13.338  24.785   9.382
36375W        W89271  15.271   9.592   9.179
36376W        W89272  24.882   1.415   9.562
36377W        W89273  16.045   8.077   8.540
36378W        W89274   4.562  33.902   0.184
36379W        W89275  17.125   8.701   1.626
36380W        W89276  27.673   9.004   8.776
36381W        W89277  13.903  14.144   9.475
36382W        W89278  23.595  19.029   9.623
36383W        W89279  14.611  28.220  10.282
36384W        W89280  14.753  12.389   1.563
36385W        W89281  11.080  16.299   8.100
36386W        W89282   2.516  10.670   8.467
36387W        W89283   4.093  31.188   0.399
36388W        W89284  10.266  14.683   7.920
36389W        W89285  23.589  22.884  10.300
36390W        W89286  23.909  25.412   0.959
36391W        W89287   3.362   3.494   9.555
36392W        W89288  26.421  15.630  10.074
36393W        W89289   3.561   6.623   9.071
36394W        W89290  33.451  27.494   1.271
36395W        W89291  11.887  17.479   0.625
36396W        W89292   9.766  30.734   2.446
36397W        W89293  11.400   6.070   9.159
36398W        W89294   9.264  13.921   2.983
36399W        W89295  31.141  19.286   0.494
36400W        W89296   3.459   7.241   9.352
36401W        W89297  23.784  35.870   3.375
36402W        W89298  25.102  12.248   9.222
36403W        W89299   0.587   0.010   7.923
36404W        W89300   7.201  30.995   2.231
36405W        W89301   5.465  14.258   9.296
36406W        W89302   6.373  13.283   8.361
36407W        W89303  21.709   2.627   2.647
36408W        W89304  27.573  26.127   1.462
36409W        W89305  27.211   3.266   9.395
36410W        W89306  29.108   8.523   2.285
36411W        W89307   5.646  20.215   9.805
36412W        W89308  32.341  18.491   0.400
36413W        W89309  32.279  29.468   0.635
36414W        W89310   8.534  29.929   0.166
36415W        W89311   5.084  12.038   7.823
36416W        W89312  11.480  31.367   2.615
36417W        W89313  26.161   6.827   3.505
36418W        W89314  29.209   6.189   0.451
36419W        W89315  26.460   2.962   1.935
36420W        W89316  11.595  35.651   8.481
36421W        W89317  33.183  27.802   2.607
36422W        W89318   0.933   7.228   2.299
36423W        W89319   6.476  14.580   1.943
36424W        W89320  26.865  17.963   1.877
36425W        W89321  23.435   7.898   3.024
36426W        W89322  33.996  28.862   3.046
36427W        W89323   6.566   5.811  10.062
36428W        W89324   6.551  34.151   1.088
36429W        W89325   2.377  14.807   8.191
36430W        W89326  17.423  10.292   1.459
36431W        W89327   7.447   5.520  10.170
36432W        W89328  27.582  31.207   2.138
36433W        W89329   2.304  33.911   0.257
36434W        W89330  14.929   6.902   3.527
36435W        W89331  27.737   5.071   9.455
36436W        W89332  28.734  28.674   1.720
36437W        W89333  26.715  26.751   1.559
36438W        W89334  27.583  21.574   9.459
36439W        W89335   3.380   0.397   9.385
36440W        W89336  17.617  20.740   2.192
36441W        W89337  31.558   5.566   1.949
36442W        W89338  24.442  33.480   8.790
36443W        W89339  19.769  25.080   1.858
36444W        W89340   5.745  25.980   7.124
36445W        W89341   7.977   6.983   7.323
36446W        W89342  18.109  19.736   3.367
36447W        W89343   2.680  21.185   1.204
36448W        W89344  21.877  21.064   1.766
36449W        W89345  10.444  22.694   8.937
36450W        W89346   7.745   7.980   0.851
36451W        W89347  16.015  16.964   2.941
36452W        W89348   9.631  18.437  10.175
36453W        W89349  18.267  30.923   2.788
36454W        W89350   8.765  28.058   1.129
36455W        W89351   9.325   3.028   2.182
36456W        W89352  19.304  29.105   7.890
36457W        W89353  13.274  33.941   1.999
36458W        W89354   2.425  32.967   0.007
36459W        W89355  29.458   1.301   1.006
36460W        W89356  24.417  22.189   2.386
36461W        W89357  29.100  33.475   9.327
36462W        W89358  24.661  24.998   2.538
36463W        W89359  32.445  15.890   2.599
36464W        W89360  34.948   1.861   7.790
36465W        W89361   6.515   7.447   0.420
36466W        W89362  27.001  14.282   9.064
36467W        W89363  21.264  20.176   3.154
36468W        W89364  11.664  17.864   3.163
36469W        W89365   6.057  10.076   3.022
36470W        W89366   3.826   6.036  10.099
36471W        W89367  13.445  13.276   8.612
36472W        W89368  15.457  29.264   8.391
36473W        W89369   6.307  26.896   7.058
36474W        W89370  25.158   0.838   1.065
36475W        W89371  32.990  14.549   8.221
36476W        W89372  25.059   1.490   7.088
36477W        W89373   3.285  19.294   8.280
36478W        W89374  31.667  31.220   3.171
36479W        W89375  23.090  30.070   7.473
36480W        W89376  34.197  28.676   1.173
36481W        W89377   7.921  35.057   8.639
36482W        W89378   8.519  14.292   7.244
36483W        W89379  30.351  32.159   1.646
36484W        W89380  26.740  15.626   1.701
36485W        W89381  18.603  24.652   9.536
36486W        W89382  31.005  29.442   0.685
36487W        W89383  10.501  14.505   9.577
36488W        W89384   0.482   4.011   1.477
36489W        W89385   5.135  18.743   0.031
36490W        W89386  28.965   7.906   1.298
36491W        W89387  26.002   4.698  10.155
36492W        W89388   1.779  32.400   4.011
36493W        W89389  18.020  35.987   8.957
36494W        W89390  14.153  22.168   3.389
36495W        W89391  17.168  19.719   0.411
36496W        W89392  35.996  16.756   0.782
36497W        W89393  12.592  17.866   8.178
36498W        W89394  35.832  31.082   0.289
36499W        W89395  28.279   3.980   2.659
36500W        W89396  24.728  26.918   0.597
36501W        W89397  34.924  30.337   1.092
36502W        W89398  26.719  22.367   7.858
36503W        W89399  32.188   7.445   2.857
36504W        W89400   7.598  19.046   1.611
36505W        W89401   5.279  12.987   2.383
36506W        W89402  20.351  32.391   0.013
36507W        W89403  30.025  20.355   7.931
36508W        W89404  11.939  22.976   0.397
36509W        W89405  14.257   7.034   7.157
36510W        W89406   5.375  19.191   0.132
36511W        W89407  16.244  21.784   8.235
36512W        W89408  15.707   0.003   8.544
36513W        W89409   7.947  24.982   0.856
36514W        W89410   7.312  19.646   8.701
36515W        W89411  32.150   7.344   9.592
36516W        W89412  24.521  28.504   0.437
36517W        W89413  30.052   5.049   1.097
36518W        W89414  18.491  11.032   8.991
36519W        W89415  21.455  30.143   7.955
36520W        W89416  12.327   8.698  10.066
36521W        W89417  10.443   8.414   3.188
36522W        W89418  13.176  23.381   2.542
36523W        W89419   8.058   9.145   1.781
36524W        W89420  22.605  25.812   1.362
36525W        W89421  35.572  10.498   2.531
36526W        W89422  25.586  15.070   3.119
36527W        W89423  13.250  11.655   2.808
36528W        W89424   2.425  32.311   2.543
36529W        W89425  10.705  23.576   9.225
36530W        W89426   6.320  10.864   1.637
36531W        W89427   1.001  10.444   9.069
36532W        W89428  17.443   5.342   0.637
36533W        W89429   1.364  22.803   8.539
36534W        W89430  24.606  23.251   1.369
36535W        W89431  30.586  27.116   0.678
36536W        W89432  17.005   6.816   2.381
36537W        W89433  25.224   7.616   3.192
36538W        W89434  20.850  14.306  10.048
36539W        W89435  21.229   4.948   8.228
36540W        W89436  32.585  14.250   9.814
36541W        W89437   5.686  15.313   8.663
36542W        W89438   8.616  32.759   0.393
36543W        W89439   4.947  24.685   2.747
36544W        W89440  26.605   2.105   0.772
36545W        W89441  15.383  23.470   9.646
36546W        W89442  29.750   0.688   2.046
36547W        W89443  24.900   9.672   1.443
36548W        W89444  14.432  30.836   2.195
36549W        W89445   7.204  32.249   0.307
36550W        W89446  25.958   0.743   1.648
36551W        W89447  18.662  22.640   2.108
36552W        W89448   3.583  20.074   0.727
36553W        W89449  35.280  14.408   3.036
36554W        W89450  12.494  22.094   2.627
36555W        W89451  27.747   8.094   9.619
36556W        W89452  26.620  31.821   9.237
36557W        W89453  15.641   4.324   1.275
36558W        W89454   2.571  35.620   3.982
36559W        W89455  31.512  18.683   7.360
36560W        W89456  30.279   6.365   2.126
36561W        W89457  17.512   5.901   2.627
36562W        W89458   6.181  22.327   0.688
36563W        W89459  14.516   8.277   0.438
36564W        W89460   3.850  27.935   2.787
36565W        W89461  14.185  27.264   9.241
36566W        W89462  32.869   2.070   0.513
36567W        W89463   1.912  16.931   2.966
36568W        W89464  34.997   2.110   2.345
36569W        W89465  13.193   4.802   0.958
36570W        W89466  35.412  20.414   8.935
36571W        W89467  28.707  18.108   9.857
36572W        W89468  27.007   6.314   1.456
36573W        W89469  33.679  18.618   1.480
36574W        W89470  27.515  11.535   1.298
36575W        W89471   4.231  13.812   0.105
36576W        W89472  24.294  13.606   8.810
36577W        W89473   9.209   3.044   1.116
36578W        W89474  23.336  14.671   9.913
36579W        W89475  23.284  21.836   8.841
36580W        W89476  13.509  27.781   3.221
36581W        W89477  35.283  34.522   8.478
36582W        W89478  24.651  20.532   1.808
36583W        W89479  24.261  30.377   7.718
36584W        W89480  17.139  29.557   8.879
36585W        W89481  30.935  24.750   9.516
36586W        W89482  19.720  28.400   1.492
36587W        W89483   0.924  17.484   9.523
36588W        W89484  32.729  32.841   8.598
36589W        W89485  28.777   9.928   0.251
36590W        W89486  20.739  21.320   8.296
36591W        W89487  10.187  12.774   1.342
36592W        W89488  30.149  17.154   2.631
36593W        W89489  17.632  22.195   9.202
36594W        W89490  13.491  23.895   1.986
36595W        W89491   0.018  28.415   7.870
36596W        W89492  32.323  13.434   9.185
36597W        W89493  32.784   2.113   2.751
36598W        W89494   5.775  15.917   7.585
36599W        W89495  33.959  24.049   2.949
36600W        W89496  18.012  18.821   1.119
36601W        W89497  30.720  26.693   8.857
36602W        W89498  22.713  31.040   8.401
36603W        W89499   2.495  35.377   2.394
36604W        W89500  19.406   0.893   7.826
36605W        W89501  34.086  13.456   7.566
36606W        W89502  12.044  22.543  10.116
36607W        W89503   3.116  32.179   9.239
36608W        W89504   7.404  15.512   0.026
36609W        W89505  10.830  16.007   0.509
36610W        W89506   9.790  20.326   0.944
36611W        W89507  14.401  24.610   3.492
36612W        W89508  21.843  22.566   8.426
36613W        W89509  30.636   3.446   2.526
36614W        W89510  20.878  34.574   9.970
36615W        W89511  35.089  27.726   1.670
36616W        W89512  25.898  27.636   9.387
36617W        W89513  32.740  13.469   8.033
36618W        W89514  25.567  27.001   0.371
36619W        W89515   1.719  14.553   3.607
36620W        W89516   9.993  24.470   8.710
36621W        W89517   9.561  33.044   0.690
36622W        W89518  19.200  14.713   2.343
36623W        W89519  19.287  27.562  10.317
36624W        W89520  14.174  16.143   0.382
36625W        W89521   7.707  17.115   9.228
36626W        W89522  18.509  14.236   3.313
36627W        W89523  25.465  32.415   0.988
36628W        W89524  15.169  12.979   8.201
36629W        W89525  25.684  17.633   1.550
36630W        W89526  24.873  13.775   8.182
36631W        W89527  32.375   5.754   9.224
36632W        W89528   5.597   9.453   2.542
36633W        W89529  24.997  20.252   1.468
36634W        W89530  28.638  30.203  10.234
36635W        W89531  29.923  11.028   1.920
36636W        W89532  22.207  17.181   2.757
36637W        W89533   7.451  11.707   1.006
36638W        W89534  19.243  20.208   3.009
36639W        W89535  16.510   5.448   3.903
36640W        W89536  13.684   9.359   9.582
36641W        W89537  32.277  34.697   0.299
36642W        W89538  12.951  29.481   8.171
36643W        W89539  34.790   2.623   1.379
36644W        W89540  10.027  29.077   2.126
36645W        W89541   0.019  35.894   7.723
36646W        W89542  34.601  10.361   9.504
36647W        W89543  30.447  16.458   9.339
36648W        W89544  13.639  11.832   2.410
36649W        W89545  21.588  34.711   8.162
36650W        W89546  25.281  35.586   8.893
36651W        W89547   7.506  34.178   1.893
36652W        W89548  31.207   2.638   9.570
36653W        W89549  22.824  26.224   1.168
36654W        W89550   7.770   2.937  10.290
36655W        W89551  10.638  31.187   1.611
36656W        W89552   7.254  21.890   7.292
36657W        W89553  12.682   3.141   7.740
36658W        W89554  35.238  15.023   3.769
36659W        W89555   6.933   4.964   0.187
36660W        W89556   4.777  31.276   2.893
36661W        W89557  16.281  21.894   2.516
36662W        W89558   3.192  27.993   2.771
36663W        W89559  13.752   5.474   9.710
36664W        W89560  32.130  11.247   1.692
36665W        W89561   0.118  29.762   2.851
36666W        W89562  28.082   6.908   3.193
36667W        W89563  18.279  14.113   7.343
36668W        W89564  26.553  17.384   1.194
36669W        W89565  12.885   1.552   0.554
36670W        W89566   6.972   2.272   7.597
36671W        W89567   3.430   1.302   8.112
36672W        W89568   4.730  29.487   1.900
36673W        W89569  24.038   6.955   0.474
36674W        W89570   9.245  30.328   1.732
36675W        W89571  33.701  35.477   1.184
36676W        W89572   8.820  18.400   0.486
36677W        W89573  19.088   5.797  10.081
36678W        W89574  30.373  13.716   7.410
36679W        W89575  28.584   7.188   2.365
36680W        W89576  32.843  28.152   2.733
36681W        W89577   8.519  27.164   8.485
36682W        W89578   2.776   3.287  10.171
36683W        W89579  15.147  14.801   9.375
36684W        W89580  25.883  11.374   3.567
36685W        W89581  30.921  21.378   9.041
36686W        W89582   0.262  32.733   1.119
36687W        W89583  33.046   5.021   2.055
36688W        W89584   9.689  35.845   1.426
36689W        W89585   4.803  20.540   1.149
36690W        W89586   0.939  29.385   9.879
36691W        W89587  14.920   7.200   2.982
36692W        W89588   9.307  34.950   0.964
36693W        W89589  33.449  24.752   8.640
36694W        W89590  35.147  10.428   9.666
36695W        W89591  32.228  33.840   0.651
36696W        W89592  17.626  33.614   8.310
36697W        W89593  28.861  20.007   7.708
36698W        W89594  20.102  32.610   3.717
36699W        W89595   8.807  20.242   2.049
36700W        W89596  12.652  20.903   7.318
36701W        W89597   9.370  17.890   9.225
36702W        W89598  34.191  30.738   1.788
36703W        W89599  28.171   6.309   9.788
36704W        W89600   9.688  29.295   2.469
36705W        W89601  27.142   7.516   7.988
36706W        W89602  15.325   1.116   9.177
36707W        W89603  12.382  13.856   9.992
36708W        W89604  19.792   6.335   0.145
36709W        W89605  27.899  28.661   9.311
36710W        W89606   2.621   1.841   2.038
36711W        W89607  18.051  12.029   0.249
36712W        W89608  31.727  13.804   2.058
36713W        W89609   9.075  19.672   2.307
36714W        W89610  28.279  10.550   3.665
36715W        W89611   8.864   4.188  10.200
36716W        W89612   7.433   5.013   2.257
36717W        W89613  28.585  14.128   9.133
36718W        W89614   9.858  32.341   8.997
36719W        W89615  22.113  23.897   1.387
36720W        W89616  16.889   5.716   1.942
36721W        W89617   8.139  30.549   0.845
36722W        W89618   4.785  21.779   2.595
36723W        W89619  26.552  16.395   7.285
36724W        W89620   9.956   6.986   7.676
36725W        W89621  30.180  10.832   7.850
36726W        W89622  15.249  28.141   1.619
36727W        W89623  26.570  13.036   1.590
36728W        W89624   0.881  31.750   7.926
36729W        W89625   4.258  23.002   3.202
36730W        W89626   9.897  27.964   1.524
36731W        W89627  35.142  21.070  10.198
36732W        W89628  27.415  17.685   8.091
36733W        W89629  28.755  14.977   0.801
36734W        W89630  28.591  31.278   1.014
36735W        W89631  26.604  14.418  10.202
36736W        W89632  34.141  22.070  10.165
36737W        W89633  20.375  28.128   9.464
36738W        W89634   3.073   1.360   8.485
36739W        W89635   8.966  24.201   9.185
36740W        W89636  32.600  19.022   0.070
36741W        W89637  23.029  19.630   3.372
36742W        W89638   9.532  25.090   1.634
36743W        W89639  13.934  16.266   9.646
36744W        W89640  28.817  21.308   2.447
36745W        W89641  17.328  15.785   9.040
36746W        W89642  25.881  23.965   1.852
36747W        W89643  26.436  15.427   9.310
36748W        W89644  29.154  25.410   7.772
36749W        W89645  28.086  12.646   9.439
36750W        W89646  34.589   4.816   1.608
36751W        W89647   6.468   1.259   1.501
36752W        W89648  34.374  12.894   9.081
36753W        W89649  25.292   9.556   8.645
36754W        W89650  11.691  35.409   0.665
36755W        W89651  11.241  34.783   1.730
36756W        W89652  32.816  15.017   1.711
36757W        W89653  15.561   4.688   0.660
36758W        W89654  34.968  13.252   0.403
36759W        W89655  35.490  20.062   3.039
36760W        W89656   4.866  23.368   3.374
36761W        W89657  12.091  31.877   3.280
36762W        W89658  26.073  16.608   9.524
36763W        W89659  24.868   0.070   9.139
36764W        W89660  34.794  17.343   2.035
36765W        W89661   8.517  23.232   0.273
36766W        W89662  30.306  10.136   2.150
36767W        W89663  17.510   8.146   8.525
36768W        W89664  24.027  11.096   2.094
36769W        W89665   1.263  10.943  10.314
36770W        W89666  31.028  21.387   8.140
36771W        W89667   7.763  31.423   9.344
36772W        W89668   0.072   5.264   8.546
36773W        W89669  13.440  25.141   7.211
36774W        W89670  22.635   0.504   0.371
36775W        W89671  20.713  27.945   1.147
36776W        W89672  27.562   8.794   7.577
36777W        W89673  24.564  10.557   9.318
36778W        W89674  33.037  35.984   0.742
36779W        W89675   4.063  24.786   2.176
36780W        W89676   2.415   7.706   7.682
36781W        W89677  35.220  27.320   1.939
36782W        W89678   7.113  12.943   8.197
36783W        W89679  30.556   9.439   1.599
36784W        W89680   8.625  29.266   9.825
36785W        W89681   3.284  18.654   8.899
36786W        W89682  13.233  15.275   3.140
36787W        W89683   6.091  10.339   8.011
36788W        W89684  13.827  28.423   9.990
36789W        W89685  32.415  28.993   0.938
36790W        W89686  21.720  12.959   8.842
36791W        W89687  24.909  34.796   2.815
36792W        W89688   1.411   2.865   1.061
36793W        W89689  20.323  12.372   9.183
36794W        W89690  27.385  34.625  10.079
36795W        W89691  33.552  11.772   0.027
36796W        W89692   7.454  29.345   7.211
36797W        W89693   2.455  27.772   3.018
36798W        W89694  18.263  18.061   8.497
36799W        W89695  14.027  31.353   2.963
36800W        W89696  26.173   1.884   0.810
36801W        W89697  26.970   7.621   0.457
36802W        W89698  23.606  27.711   1.519
36803W        W89699  34.250   6.128   3.470
36804W        W89700  29.835   4.418   1.882
36805W        W89701  14.487  16.450   0.067
36806W        W89702   4.725   8.912   9.507
36807W        W89703  10.521  32.023   2.219
36808W        W89704  27.568  14.110   8.303
36809W        W89705  30.556   2.441   7.778
36810W        W89706  27.933  13.414   8.940
36811W        W89707   1.402  34.734   8.231
36812W        W89708  33.388   3.614   7.302
36813W        W89709  11.673  26.317   8.213
36814W        W89710  14.265   2.417   1.558
36815W        W89711  14.783  30.985   0.146
36816W        W89712   7.144   9.626   8.095
36817W        W89713   2.524  11.227   1.743
36818W        W89714  34.593  21.208   0.425
36819W        W89715  19.586  31.206   0.348
36820W        W89716   1.628  29.342   8.478
36821W        W89717   7.223  35.479   7.820
36822W        W89718  19.650  20.674   8.305
36823W        W89719   6.550   3.013   8.183
36824W        W89720  23.157  21.442   7.862
36825W        W89721  18.956  10.730   9.734
36826W        W89722   8.365  17.810   2.620
36827W        W89723   9.026  16.942   0.904
36828W        W89724  27.063   4.925   1.976
36829W        W89725  34.568  20.600   1.520
36830W        W89726  13.944  27.338   0.767
36831W        W89727  33.944   8.219   2.286
36832W        W89728   7.866   8.688   0.025
36833W        W89729  24.152  10.640   2.346
36834W        W89730   8.173  12.279   2.881
36835W        W89731   5.265  27.588   8.370
36836W        W89732  31.291  18.288   2.268
36837W        W89733  14.278   3.022   7.985
36838W        W89734  34.713  23.470   8.305
36839W        W89735   5.431   1.244   3.718
36840W        W89736  13.437  24.213   7.602
36841W        W89737  24.296  17.638   9.594
36842W        W89738   9.417  28.569  10.337
36843W        W89739  11.331  16.806   9.149
36844W        W89740  30.730  32.346   1.427
36845W        W89741  15.074   8.253   3.570
36846W        W89742   5.587   5.957   1.790
36847W        W89743  16.917  23.176   8.021
36848W        W89744  12.125   4.974  10.107
36849W        W89745  16.418  15.209   9.639
36850W        W89746  11.521  17.696  10.240
36851W        W89747  31.853  30.831  10.186
36852W        W89748  23.542  20.355   9.956
36853W        W89749  12.132  10.635   9.660
36854W        W89750   4.323  16.236   8.334
36855W        W89751  12.189  19.418   3.205
36856W        W89752  22.876  12.196   3.060
36857W        W89753   1.147  25.144   9.681
36858W        W89754  19.035  27.990   1.955
36859W        W89755  33.364   4.904   8.701
36860W        W89756  33.851  12.922   3.532
36861W        W89757  22.519  32.239   8.941
36862W        W89758  20.995  23.675   9.919
36863W        W89759  20.450   2.876   0.026
36864W        W89760   6.717  23.842   0.454
36865W        W89761   9.969  15.674   2.804
36866W        W89762  16.000  16.344   0.940
36867W        W89763  10.217  15.594   9.608
36868W        W89764   6.175   0.992   1.874
36869W        W89765  20.328  18.002   2.009
36870W        W89766   2.188  10.786   3.852
36871W        W89767  30.918  30.104   1.808
36872W        W89768  33.452   3.284   3.435
36873W        W89769  33.010  17.942   8.289
36874W        W89770  11.647  20.560   8.720
36875W        W89771  22.409  28.436   7.552
36876W        W89772   6.491   8.629   7.808
36877W        W89773  30.929   8.778   9.023
36878W        W89774   0.827  23.248   8.625
36879W        W89775  26.386  29.713   8.949
36880W        W89776   5.634  16.227   0.966
36881W        W89777  13.174   7.020   7.488
36882W        W89778   0.898  21.517   2.458
36883W        W89779   5.110  25.526   2.402
36884W        W89780   2.484  30.134   2.314
36885W        W89781  33.769  17.045   2.277
36886W        W89782  31.471  15.368   9.383
36887W        W89783  23.533   5.962   8.093
36888W        W89784  22.956   4.928   9.365
36889W        W89785  32.652  20.620   8.810
36890W        W89786   4.075   6.704   9.756
36891W        W89787   4.893  23.907   3.477
36892W        W89788   9.700  21.834   0.331
36893W        W89789  14.806  35.487   1.826
36894W        W89790  24.044   9.200   9.664
36895W        W89791  24.926  34.261   0.199
36896W        W89792  13.362   7.742   8.570
36897W        W89793  27.183  32.635   7.113
36898W        W89794  33.929  14.247   8.568
36899W        W89795  27.168  24.621   0.961
36900W        W89796  13.375   3.792   1.753
36901W        W89797   6.170  24.858   1.787
36902W        W89798  17.807   7.579   0.642
36903W        W89799  12.389   2.039   0.838
36904W        W89800  33.709  33.088   0.405
36905W        W89801   8.356   2.277   2.694
36906W        W89802  23.645  21.853   1.744
36907W        W89803   5.500  18.323   9.180
36908W        W89804  10.305  17.021  10.043
36909W        W89805  15.796  10.025   8.201
36910W        W89806   2.978  13.305   2.874
36911W        W89807   8.757  30.210   8.136
36912W        W89808  29.088  31.533   7.991
36913W        W89809  19.664   1.491   3.858
36914W        W89810  26.687  31.213   1.313
36915W        W89811  19.463  25.643   2.605
36916W        W89812  20.040   3.374  10.226
36917W        W89813  30.621  17.802   2.273
36918W        W89814   0.522  20.761   7.545
36919W        W89815  16.301  14.022   7.930
36920W        W89816  35.578  23.592   3.820
36921W        W89817  21.360  18.511   7.664
36922W        W89818   6.755  10.276   8.882
36923W        W89819  16.199  17.528   9.381
36924W        W89820  31.384  30.672   0.083
36925W        W89821   8.309  14.118   1.950
36926W        W89822  20.239  30.070   3.253
36927W        W89823  30.653  35.263   0.400
36928W        W89824  22.384  32.857   1.117
36929W        W89825   3.261  32.019   2.464
36930W        W89826  25.770   7.185   3.834
36931W        W89827   1.247  20.719   1.223
36932W        W89828  27.826   1.221   1.130
36933W        W89829   3.793   8.908   7.778
36934W        W89830   8.857  28.054   8.427
36935W        W89831   2.705  13.096   8.383
36936W        W89832   2.297  17.050   8.823
36937W        W89833  28.791  24.930   0.594
36938W        W89834   8.841   3.305   1.353
36939W        W89835  13.913  24.095   2.694
36940W        W89836  31.909  34.470   3.190
36941W        W89837   0.554  15.219   1.555
36942W        W89838  19.038  22.771   3.326
36943W        W89839  21.950  31.521   8.165
36944W        W89840   5.130  27.519   1.874
36945W        W89841  20.661   9.006   2.595
36946W        W89842   0.017  29.086   0.062
36947W        W89843  10.585  15.052   8.038
36948W        W89844  21.023  27.921   0.216
36949W        W89845  22.620   2.243   1.403
36950W        W89846  11.865  24.410   0.434
36951W        W89847   1.038   1.126   8.073
36952W        W89848   4.712  33.968   1.779
36953W        W89849  20.127  18.689   9.098
36954W        W89850   5.778  30.482   0.823
36955W        W89851   5.841  20.256   7.418
36956W        W89852   3.489   9.116   1.959
36957W        W89853   9.889  34.517   2.582
36958W        W89854  30.610  16.856   7.026
36959W        W89855  18.110  23.722   3.585
36960W        W89856   3.089   6.737   2.496
36961W        W89857  26.881  10.016   1.849
36962W        W89858   9.191  28.668   6.945
36963W        W89859   4.251  27.582   8.639
36964W        W89860  20.964  23.780   1.363
36965W        W89861   3.495   3.307   9.019
36966W        W89862   1.863  28.026   7.916
36967W        W89863   1.659  35.650   0.484
36968W        W89864  20.850  24.838  10.263
36969W        W89865  35.544  17.834   1.333
36970W        W89866  11.051  30.342   7.479
36971W        W89867   2.206  25.852   8.965
36972W        W89868   6.318  33.323   8.589
36973W        W89869   6.702  29.354   7.758
36974W        W89870  32.118  16.461   2.925
36975W        W89871  19.654  33.990   1.888
36976W        W89872  33.309  27.177   2.580
36977W        W89873  13.541  29.172   7.899
36978W        W89874  26.170  25.635   9.415
36979W        W89875  30.492  24.313   1.634
36980W        W89876  33.422  29.562   9.979
36981W        W89877  26.945  25.083   0.657
36982W        W89878   5.316   3.686   3.618
36983W        W89879  28.659  30.799   0.720
36984W        W89880  18.963  13.962   9.574
36985W        W89881   8.225  19.655   8.741
36986W        W89882  12.910   7.439   2.669
36987W        W89883  32.562  24.145   3.723
36988W        W89884  16.467  27.305   8.209
36989W        W89885  13.948  13.543   0.818
36990W        W89886  20.230   2.856   2.516
36991W        W89887  26.598  30.679   9.871
36992W        W89888  30.291  29.534   1.964
36993W        W89889  19.082   5.258   9.621
36994W        W89890  21.973   6.695   2.099
36995W        W89891  30.430  18.284   1.530
36996W        W89892  24.764  23.259   9.934
36997W        W89893   9.822   5.161   2.887
36998W        W89894   5.130  31.098   8.695
36999W        W89895   8.575   6.800   9.145
37000W        W89896  31.977  35.342   1.093
37001W        W89897   4.153  27.175   1.381
37002W        W89898  20.596  13.758  10.054
37003W        W89899  22.931  32.326   7.715
37004W        W89900  22.120  10.015  10.315
37005W        W89901  24.123  16.694   2.822
37006W        W89902  12.611  13.563   8.412
37007W        W89903  21.000  33.959   3.073
37008W        W89904  28.411  25.518   9.609
37009W        W89905  22.067  11.182  10.250
37010W        W89906   9.348   2.984   2.961
37011W        W89907  20.564  31.091   1.196
37012W        W89908  20.372  25.367   2.226
37013W        W89909  10.923  27.685   2.048
37014W        W89910  27.281  28.502   8.094
37015W        W89911  19.733  33.531   3.615
37016W        W89912  13.647  30.316   2.551
37017W        W89913  35.199  21.547   8.571
37018W        W89914  13.410  17.858  10.122
37019W        W89915  25.798  22.351   8.217
37020W        W89916  30.597   6.472   7.920
37021W        W89917  19.298  19.347   2.373
37022W        W89918  20.407  35.373   8.399
37023W        W89919   0.281  21.739   3.141
37024W        W89920  28.177  26.678   9.088
37025W        W89921  28.755   8.428   0.278
37026W        W89922  19.385  31.129   8.456
37027W        W89923  14.692  13.816  10.114
37028W        W89924   5.029   5.565   2.305
37029W        W89925  28.312  10.665   7.599
37030W        W89926   0.841  18.636   3.088
37031W        W89927  14.804  10.221  10.058
37032W        W89928   2.317  34.582   1.086
37033W        W89929   5.962  21.006   2.495
37034W        W89930   0.164  14.189   1.435
37035W        W89931   2.581  24.629   3.709
37036W        W89932   8.700  29.647   7.463
37037W        W89933  31.521  31.934  10.124
37038W        W89934  17.987  12.646   3.205
37039W        W89935  25.219  22.286   3.373
37040W        W89936   6.420  16.939   0.228
37041W        W89937  19.930  34.989  10.194
37042W        W89938   2.382   3.313   0.115
37043W        W89939  29.535  29.742   1.499
37044W        W89940  11.408   3.278  10.211
37045W        W89941  24.027  16.895   0.827
37046W        W89942  22.400   9.754   0.344
37047W        W89943  21.259  11.822   3.088
37048W        W89944  31.266  15.434   2.586
37049W        W89945  16.370   7.080   7.679
37050W        W89946  29.070   0.643   8.561
37051W        W89947  30.917  32.367   9.488
37052W        W89948  11.600   0.206   8.263
37053W        W89949  11.951   1.302   6.782
37054W        W89950   6.117   7.324   7.665
37055W        W89951  34.347  10.445   8.302
37056W        W89952  27.561  15.443   2.605
37057W        W89953   0.205  25.037  10.219
37058W        W89954  26.964  26.663   8.192
37059W        W89955  33.990  35.027   1.770
37060W        W89956  29.276  21.665  10.151
37061W        W89957  30.291   5.931   1.644
37062W        W89958  27.861   3.518   8.403
37063W        W89959  31.120   0.768   2.564
37064W        W89960  33.126  12.710   8.268
37065W        W89961  21.209  15.201  10.185
37066W        W89962  17.107   4.538   0.065
37067W        W89963  20.356   9.326   1.472
37068W        W89964   9.788  19.009   1.477
37069W        W89965  10.381   8.276  10.306
37070W        W89966  22.074  14.786   1.408
37071W        W89967  24.110  11.630   8.271
37072W        W89968   5.818  26.884   7.262
37073W        W89969  31.571  14.748   7.366
37074W        W89970  35.577  10.648   0.771
37075W        W89971  27.828  33.376   8.585
37076W        W89972  21.759  32.480   1.160
37077W        W89973  22.766  14.178   2.562
37078W        W89974  24.767   6.433   1.625
37079W        W89975  25.362  12.286   8.757
37080W        W89976  22.398   0.426   8.736
37081W        W89977   4.908   0.215   7.921
37082W        W89978   2.135  34.299   0.623
37083W        W89979  14.571   7.953   1.747
37084W        W89980   3.912  19.260   8.817
37085W        W89981  29.622  24.263   0.344
37086W        W89982   9.923   2.692  10.227
37087W        W89983  13.452   8.141   0.986
37088W        W89984   0.746  16.608   2.711
37089W        W89985   5.720  20.039   8.113
37090W        W89986  25.932   5.875   9.965
37091W        W89987  15.898  19.381   0.513
37092W        W89988  24.493  30.359  10.270
37093W        W89989  23.802  35.991   7.511
37094W        W89990  27.453  13.615   9.068
37095W        W89991  29.754  34.864   8.793
37096W        W89992  13.170  21.900  10.117
37097W        W89993  24.172   5.274   2.962
37098W        W89994  12.857  26.494   9.172
37099W        W89995  24.326  21.207   3.483
37100W        W89996  20.177  13.587   2.040
37101W        W89997   9.700  11.461   1.141
37102W        W89998  23.717   6.512   1.195
37103W        W89999  24.269  15.207   2.418
37104W        W90000  25.359  25.507   8.134
37105W        W90001  13.151  12.073   8.918
37106W        W90002  32.327   4.672   2.457
37107W        W90003   1.403  21.713   2.615
37108W        W90004  22.269   8.816   2.768
37109W        W90005   7.086  18.682   7.714
37110W        W90006  14.711   5.954   8.957
37111W        W90007  34.999   1.548   1.396
37112W        W90008  33.316  16.262   9.524
37113W        W90009  27.806  10.811  10.327
37114W        W90010  24.239  25.781   9.026
37115W        W90011   8.623  10.735   8.121
37116W        W90012  35.243   4.859   8.414
37117W        W90013  20.729  12.001   9.031
37118W        W90014  23.482  26.363   0.127
37119W        W90015  31.405  33.260   8.978
37120W        W90016  11.738   6.699   8.682
37121W        W90017   2.592   8.206   1.917
37122W        W90018   8.189  28.566   7.770
37123W        W90019   9.700   8.523   9.211
37124W        W90020   3.264  20.699   2.718
37125W        W90021  10.794   0.979   0.787
37126W        W90022   0.012  23.707   2.183
37127W        W90023  14.895  19.210   1.553
37128W        W90024  26.351   8.555   0.667
37129W        W90025  16.431  32.539   9.042
37130W        W90026  25.393   9.842   8.258
37131W        W90027  31.546  26.195   2.153
37132W        W90028  22.639   1.234   9.278
37133W        W90029  32.749   1.349   9.708
37134W        W90030  24.439  17.616  10.168
37135W        W90031   8.826  15.229   3.824
37136W        W90032  16.874  17.528   0.714
37137W        W90033  33.024   8.900   9.515
37138W        W90034  10.483  29.662   2.481
37139W        W90035  30.545   6.058   2.443
37140W        W90036   9.762  18.900   8.666
37141W        W90037   4.566  26.262   2.891
37142W        W90038   8.242   0.870   1.466
37143W        W90039   7.741  17.894   9.969
37144W        W90040  14.667  19.915   8.073
37145W        W90041   2.213  26.965   1.326
37146W        W90042   4.567   9.254   9.864
37147W        W90043  25.045   1.707   0.582
37148W        W90044  28.688  10.971   2.150
37149W        W90045  23.430   8.457   3.079
37150W        W90046   8.223  23.880   7.406
37151W        W90047  16.735  31.667  10.333
37152W        W90048   0.679   6.670   9.400
37153W        W90049   1.699  20.977   2.011
37154W        W90050   0.412  33.467   1.610
37155W        W90051   4.423   4.533   0.346
37156W        W90052   1.768   9.220   0.714
37157W        W90053  29.739  29.702   9.482
37158W        W90054   8.244   3.728   1.951
37159W        W90055  34.651  32.767   8.402
37160W        W90056   1.167  30.263   8.746
37161W        W90057  21.773  14.329   1.764
37162W        W90058  17.813  32.904   9.142
37163W        W90059   3.786  35.628   2.060
37164W        W90060  13.457   6.350   0.238
37165W        W90061   9.200  34.431   9.251
37166W        W90062  22.428  22.824   3.316
37167W        W90063   8.397   6.600   8.670
37168W        W90064  31.011   1.304   7.769
37169W        W90065   7.421  10.803   2.812
37170W        W90066  17.797  24.345   0.824
37171W        W90067   5.937  27.270   9.074
37172W        W90068  13.069   5.173   0.662
37173W        W90069  23.285  21.374   0.018
37174W        W90070  17.104  26.091   9.815
37175W        W90071  29.313  31.293   8.373
37176W        W90072   2.070  10.653   2.964
37177W        W90073  31.687   0.300   0.364
37178W        W90074  14.677   1.432   1.940
37179W        W90075  10.531  30.463   1.189
37180W        W90076   7.803  18.507   1.590
37181W        W90077   3.446  22.706   1.449
37182W        W90078  12.750  18.999   0.954
37183W        W90079   4.158   8.176   2.278
37184W        W90080  26.940  32.347   7.441
37185W        W90081  24.562  23.793   1.496
37186W        W90082  10.285   3.846   9.606
37187W        W90083   1.080  33.742   9.545
37188W        W90084   5.595  21.818   8.201
37189W        W90085   3.765  11.403   3.156
37190W        W90086  28.210   3.542   2.422
37191W        W90087   6.140  14.477  10.247
37192W        W90088  20.903  12.627   2.217
37193W        W90089   7.754  12.181   1.193
37194W        W90090  14.448  11.022   8.907
37195W        W90091  15.157  26.392   7.398
37196W        W90092  20.772  29.785   3.170
37197W        W90093  34.251   7.585  10.186
37198W        W90094  27.453   1.211   1.481
37199W        W90095  28.015  25.815   9.638
37200W        W90096  23.623  21.979   2.237
37201W        W90097   9.422  22.184   3.151
37202W        W90098  29.899  31.691   3.145
37203W        W90099   7.603  11.794   7.740
37204W        W90100  26.628  10.264   3.367
37205W        W90101  18.492  21.631   8.032
37206W        W90102  16.243  19.571   0.827
37207W        W90103  27.113   5.560  10.017
37208W        W90104   1.508  32.034   8.047
37209W        W90105  21.949  13.843   0.946
37210W        W90106  19.694   1.696   0.120
37211W        W90107  13.458   9.533   0.674
37212W        W90108   6.203   7.916   3.802
37213W        W90109   1.072   6.956   0.958
37214W        W90110   5.425  21.321   8.253
37215W        W90111  32.318   1.077   1.379
37216W        W90112  25.154  18.270  10.260
37217W        W90113   6.740  18.543   1.153
37218W        W90114  19.703   2.314   8.777
37219W        W90115  17.362  34.984  10.032
37220W        W90116   5.008   0.244   0.157
37221W        W90117  12.556  24.378   7.933
37222W        W90118  16.745   6.435   2.328
37223W        W90119  15.803  26.289   1.632
37224W        W90120   6.200   6.466   8.025
37225W        W90121  26.010  20.075   2.438
37226W        W90122  35.580  25.717   2.410
37227W        W90123  19.421  30.347   8.620
37228W        W90124   0.662  29.751   2.207
37229W        W90125  20.291  27.731   0.788
37230W        W90126  30.962  13.681   2.109
37231W        W90127  22.831  35.247   8.189
37232W        W90128  14.131   3.533  10.033
37233W        W90129  14.374  21.115   9.629
37234W        W90130  25.800   4.196   1.683
37235W        W90131   1.758   2.039   0.656
37236W        W90132   5.828  13.658   9.839
37237W        W90133  12.953   8.292   9.735
37238W        W90134   6.014   9.974   0.985
37239W        W90135   5.812  28.595   1.433
37240W        W90136  16.642  11.431   7.318
37241W        W90137  29.190  34.271   0.508
37242W        W90138  10.678  15.812   9.373
37243W        W90139  23.539   6.537   2.596
37244W        W90140   0.944  33.873   8.676
37245W        W90141  14.922   2.573   0.379
37246W        W90142  13.676  20.894   2.535
37247W        W90143  31.009   5.011   0.917
37248W        W90144  12.622   4.723   3.189
37249W        W90145  30.053  35.114   1.694
37250W        W90146  16.176  15.251   8.418
37251W        W90147  31.557  30.673   2.553
37252W        W90148  18.706   3.275   9.828
37253W        W90149  22.404  10.209   8.911
37254W        W90150   5.044   2.168   0.840
37255W        W90151  11.126   3.542   7.459
37256W        W90152   9.324   3.879   0.551
37257W        W90153   4.802  35.808   2.000
37258W        W90154  28.383  23.248   7.892
37259W        W90155  29.015   0.146   9.402
37260W        W90156   9.668  12.239   2.423
37261W        W90157  30.358  33.734   7.536
37262W        W90158  33.303  27.973   1.105
37263W        W90159  22.669  28.206   9.201
37264W        W90160  23.936  14.563   8.624
37265W        W90161   8.462  16.164   7.601
37266W        W90162   1.280  25.362  10.130
37267W        W90163  30.857  18.185   2.497
37268W        W90164  32.857  14.167   0.562
37269W        W90165  25.053  19.264   1.554
37270W        W90166   4.284  26.703   9.967
37271W        W90167  28.182  28.945   2.506
37272W        W90168  31.668   8.046   8.981
37273W        W90169  25.059  28.552   1.683
37274W        W90170  24.162  11.335   1.050
37275W        W90171  16.346   6.689   2.952
37276W        W90172  29.507   1.851   2.002
37277W        W90173  14.895  27.825   1.908
37278W        W90174  21.419  30.819   9.912
37279W        W90175   2.532  29.111   2.036
37280W        W90176  18.783  28.246   0.748
37281W        W90177   8.054  17.067   2.347
37282W        W90178   7.164  26.516   0.497
37283W        W90179  13.550  19.094   7.801
37284W        W90180  29.780  14.594  10.055
37285W        W90181  23.305  35.018   0.811
37286W        W90182  22.424  13.326   1.614
37287W        W90183   7.109   2.222   2.027
37288W        W90184  24.186  12.047   2.119
37289W        W90185  31.007  11.294   9.061
37290W        W90186  12.101   6.771   9.574
37291W        W90187  30.611  14.921   9.151
37292W        W90188   0.152  32.152   7.939
37293W        W90189  22.258  26.603   2.373
37294W        W90190  18.695  17.758   1.106
37295W        W90191  27.300  26.372   3.024
37296W        W90192  29.093  34.502   9.681
37297W        W90193  11.271   0.978   2.619
37298W        W90194  18.105  20.679   0.605
37299W        W90195  35.208  14.530   0.867
37300W        W90196  29.060  20.884   2.234
37301W        W90197  13.906  32.001   8.019
37302W        W90198  29.096  34.067   9.934
37303W        W90199  35.428   9.355   0.640
37304W        W90200  18.262   5.894   2.063
37305W        W90201  12.601  12.234   1.841
37306W        W90202  24.076  34.655   8.315
37307W        W90203   8.403  33.634   8.810
37308W        W90204   8.187  19.343   8.339
37309W        W90205  17.371  30.049   9.553
37310W        W90206   3.186   6.870  10.105
37311W        W90207  29.149  29.144   0.777
37312W        W90208  24.402  25.930   9.997
37313W        W90209  20.501  15.823   2.445
37314W        W90210  35.760  16.283   0.779
37315W        W90211   5.286  15.552   1.249
37316W        W90212  30.080  16.844   8.021
37317W        W90213  15.091   3.090   8.812
37318W        W90214  27.401  31.819   9.249
37319W        W90215  31.253  27.679   1.016
37320W        W90216  13.559  20.364   1.239
37321W        W90217  27.466  16.945   2.189
37322W        W90218  27.593   1.963   8.434
37323W        W90219   6.065   4.855   9.332
37324W        W90220  20.544  12.524   3.139
37325W        W90221  29.399   9.650   3.549
37326W        W90222   0.450  29.832   8.650
37327W        W90223   4.661  29.494   0.891
37328W        W90224  20.806  16.863   8.360
37329W        W90225  13.988   6.774  10.017
37330W        W90226  25.910   1.075  10.068
37331W        W90227   0.648   5.959   9.161
37332W        W90228  19.485   3.406   7.876
37333W        W90229  26.243   1.827   3.227
37334W        W90230  20.479  17.775   1.208
37335W        W90231  10.232   8.831   9.355
37336W        W90232   9.357  16.550   9.294
37337W        W90233   2.781  19.852   0.024
37338W        W90234  11.341  20.337  10.326
37339W        W90235   2.046  28.134   2.153
37340W        W90236  10.133  12.404   2.434
37341W        W90237  13.104  18.553  10.087
37342W        W90238   2.862  11.991   9.021
37343W        W90239  34.145  15.120   1.246
37344W        W90240  26.686   1.991   8.196
37345W        W90241  12.254   0.174   0.581
37346W        W90242  22.183  29.021   9.348
37347W        W90243   7.128  18.017   3.069
37348W        W90244  12.357  33.243   9.746
37349W        W90245   5.763   4.171   0.182
37350W        W90246  10.220  19.947  10.295
37351W        W90247  25.742  18.990   1.035
37352W        W90248   6.675  20.933  10.087
37353W        W90249  22.658  30.073   1.258
37354W        W90250   0.799  34.641   9.411
37355W        W90251  11.126  13.306   2.264
37356W        W90252  27.088  18.056   7.877
37357W        W90253  11.317   6.294   9.673
37358W        W90254  33.172  29.027   2.106
37359W        W90255  19.274   8.052   1.356
37360W        W90256  19.838   1.960   1.328
37361W        W90257  11.209  32.962   8.630
37362W        W90258  28.569  32.084   9.096
37363W        W90259   1.367  21.051   1.607
37364W        W90260   8.387  30.840   1.730
37365W        W90261   0.847  21.398   0.462
37366W        W90262   5.965  16.807   0.259
37367W        W90263  18.793  28.510   2.738
37368W        W90264  19.041  34.372   9.864
37369W        W90265  14.459  14.441   1.209
37370W        W90266  27.373  24.889   2.608
37371W        W90267   6.103  26.625   2.935
37372W        W90268  11.391   8.710   0.201
37373W        W90269   9.945   8.049  10.056
37374W        W90270  19.173  23.253   8.692
37375W        W90271   1.258  35.788   2.871
37376W        W90272  28.926  15.877   9.123
37377W        W90273  12.793  29.291  10.313
37378W        W90274  32.346  12.346   2.659
37379W        W90275  30.804  32.721   8.611
37380W        W90276   4.787  26.576   9.689
37381W        W90277  21.968   2.029   8.340
37382W        W90278  17.388  13.483   8.662
37383W        W90279   1.722   8.409   3.847
37384W        W90280   7.149  24.299   0.967
37385W        W90281  35.646  12.626   3.343
37386W        W90282  15.516  26.642   9.024
37387W        W90283   6.602  20.056   0.135
37388W        W90284  20.866  16.316   1.662
37389W        W90285  22.384  27.824   9.730
37390W        W90286  13.818   8.386   2.274
37391W        W90287  29.781   1.984   2.471
37392W        W90288   3.936  20.499   0.611
37393W        W90289   1.194  26.374   8.404
37394W        W90290  14.899  35.069   2.312
37395W        W90291  18.084  18.377   9.974
37396W        W90292  34.875   9.911   0.261
37397W        W90293  19.262  27.354   0.873
37398W        W90294   4.807  16.352   7.511
37399W        W90295  21.592  19.243  10.122
37400W        W90296  31.047  35.697   8.040
37401W        W90297  31.001  31.737   8.417
37402W        W90298  10.756  30.000  10.069
37403W        W90299  24.028  34.105   8.417
37404W        W90300  34.892  18.000   9.957
37405W        W90301  23.265  16.659   8.277
37406W        W90302   7.177  26.950   0.155
37407W        W90303   8.925  12.494   9.053
37408W        W90304  16.063   9.203   0.295
37409W        W90305   9.588  33.741   0.942
37410W        W90306   1.383  34.214   1.361
37411W        W90307  10.788   0.449   0.717
37412W        W90308  31.455   3.283   0.559
37413W        W90309  11.522  24.084   2.021
37414W        W90310  15.526   2.072   0.756
37415W        W90311  29.331  16.623   0.055
37416W        W90312  32.950   6.197   1.487
37417W        W90313  30.623   4.239   0.257
37418W        W90314  19.233  19.750   2.062
37419W        W90315  19.542  24.572  10.242
37420W        W90316  11.979  32.340   0.392
37421W        W90317   8.164  28.343   1.941
37422W        W90318  26.125  32.127   7.160
37423W        W90319  27.092  27.801   1.044
37424W        W90320  22.110  17.152   0.307
37425W        W90321  27.011  34.869   8.016
37426W        W90322  10.754  21.230   0.900
37427W        W90323   7.676  12.132   8.191
37428W        W90324  12.321  25.114  10.167
37429W        W90325  15.898  10.624   7.820
37430W        W90326  20.086  11.675   9.866
37431W        W90327  25.682  13.747   8.775
37432W        W90328  17.559  28.939   9.262
37433W        W90329   9.479   4.818   0.894
37434W        W90330  29.743   9.096   7.586
37435W        W90331   9.895   8.984   2.405
37436W        W90332  22.372  27.791   7.931
37437W        W90333   0.180  18.448   3.809
37438W        W90334  25.183   6.370   8.545
37439W        W90335  34.813  35.855   7.337
37440W        W90336  14.811  28.541   2.266
37441W        W90337  20.670  15.374   3.129
37442W        W90338  12.494   4.377   2.083
37443W        W90339  10.461  14.210   9.992
37444W        W90340   3.795  24.044   9.831
37445W        W90341   2.501  20.470  10.053
37446W        W90342  28.191  35.424   2.989
37447W        W90343  13.882   1.803   0.305
37448W        W90344  14.632   1.613   7.287
37449W        W90345  22.693   8.822   8.795
37450W        W90346  24.162  23.062   1.295
37451W        W90347  13.400  27.030   9.144
37452W        W90348  35.040   4.147   7.900
37453W        W90349   7.887  32.532   3.226
37454W        W90350   3.836   3.958   2.161
37455W        W90351   6.411   1.860   3.506
37456W        W90352  33.444  18.105   0.106
37457W        W90353  12.306  19.639   7.896
37458W        W90354  19.095   9.727  10.198
37459W        W90355  15.907  20.175   9.070
37460W        W90356   4.258   7.881   3.671
37461W        W90357   4.818  22.653   1.543
37462W        W90358  19.433  11.760   8.387
37463W        W90359   1.291   8.567   1.342
37464W        W90360   1.446  35.484   1.859
37465W        W90361  27.654  15.905   8.052
37466W        W90362  15.948  35.108   1.235
37467W        W90363  11.101  10.594   2.711
37468W        W90364  17.572  22.488   8.124
37469W        W90365  12.491   2.222   2.493
37470W        W90366  15.415  29.095   7.875
37471W        W90367  12.179  16.466   9.828
37472W        W90368  27.721   5.807   2.775
37473W        W90369  15.311  14.568   1.410
37474W        W90370  30.345   6.709   9.649
37475W        W90371  11.749  30.123   2.416
37476W        W90372   5.111  20.348   0.121
37477W        W90373   6.235  21.393   8.723
37478W        W90374  18.981   3.755   2.980
37479W        W90375  30.809   0.630   1.723
37480W        W90376   8.448   1.579   6.901
37481W        W90377   4.150   2.319   0.043
37482W        W90378  31.526  32.316   3.588
37483W        W90379  32.098   3.643   2.338
37484W        W90380   5.702  34.021   9.824
37485W        W90381  13.852  22.174   3.001
37486W        W90382   2.853   7.213   8.222
37487W        W90383  31.733  20.852   8.668
37488W        W90384  29.262  29.939   2.749
37489W        W90385  14.719  13.764   9.601
37490W        W90386  11.896   9.598   1.042
37491W        W90387  25.207  25.400   1.989
37492W        W90388  17.558   7.070   0.599
37493W        W90389  32.459  27.501   3.135
37494W        W90390  12.936  34.064   0.739
37495W        W90391  30.105  33.147   0.837
37496W        W90392  24.566  20.907   0.466
37497W        W90393   9.273  32.683   1.693
37498W        W90394   2.297  16.569   1.771
37499W        W90395  10.113  34.173   1.519
37500W        W90396  24.914  26.787   9.352
37501W        W90397  29.538   2.907   0.820
37502W        W90398  25.227   9.474   1.086
37503W        W90399   5.665  29.524   0.626
37504W        W90400   0.385  33.896   8.917
37505W        W90401  27.609  34.719   9.050
37506W        W90402  24.084   8.565   7.528
37507W        W90403  21.913  16.977   9.178
37508W        W90404   0.073  24.618   2.953
37509W        W90405  16.709  22.607   0.024
37510W        W90406  34.501   2.872   9.247
37511W        W90407   4.207  11.899   9.737
37512W        W90408  11.693  30.443   7.933
37513W        W90409  32.316  14.976   2.704
37514W        W90410  34.418   7.763   1.539
37515W        W90411  16.983  29.463   7.868
37516W        W90412  24.613  10.851   3.774
37517W        W90413   4.129  30.776   9.124
37518W        W90414   3.585   8.914   3.238
37519W        W90415  30.141  34.397   6.906
37520W        W90416  14.113  24.734   0.725
37521W        W90417  17.107   0.771   2.609
37522W        W90418   5.022  34.199   7.021
37523W        W90419  34.201   9.465   1.016
37524W        W90420   0.360  33.528   0.612
37525W        W90421   7.654   4.489   3.130
37526W        W90422  13.428  11.343   1.048
37527W        W90423   2.034  22.294   2.637
37528W        W90424  32.033  31.181   3.545
37529W        W90425  31.688  14.240   7.411
37530W        W90426  30.469  28.942   3.509
37531W        W90427   0.120  34.732   7.383
37532W        W90428  14.451   6.380   8.804
37533W        W90429  32.652   8.443   3.563
37534W        W90430  14.737  24.458   2.394
37535W        W90431  29.274  31.973   9.373
37536W        W90432  27.396   4.922   7.694
37537W        W90433  20.820   1.552   7.607
37538W        W90434   3.730  12.017   9.644
37539W        W90435   3.715  20.074   0.170
37540W        W90436  34.627   3.967   7.696
37541W        W90437  31.288  25.100   0.086
37542W        W90438   8.482  20.303  10.152
37543W        W90439  11.663   4.524   9.671
37544W        W90440   2.869   3.177   0.464
37545W        W90441  18.780  10.065   0.653
37546W        W90442   4.652   3.182   8.122
37547W        W90443  22.407   0.567   1.437
37548W        W90444   3.416   3.642   2.150
37549W        W90445   3.186  17.997   2.294
37550W        W90446   6.493   2.910   8.741
37551W        W90447   3.742   0.564   7.873
37552W        W90448  11.434  29.706   2.553
37553W        W90449  32.546  13.313   9.588
37554W        W90450  12.944  32.965   9.743
37555W        W90451  23.099   8.572   9.019
37556W        W90452  14.840  21.836   2.513
37557W        W90453  10.635   1.296   6.846
37558W        W90454  26.516  11.344   3.709
37559W        W90455  12.160   7.642   0.384
37560W        W90456  29.762  25.411   1.589
37561W        W90457  10.591   8.257   3.755
37562W        W90458  29.374  20.019   2.287
37563W        W90459  24.039   2.066   1.580
37564W        W90460  18.998   1.856   9.780
37565W        W90461  28.887  32.124   7.459
37566W        W90462   8.263  10.047  10.323
37567W        W90463  17.626  21.291   2.136
37568W        W90464   4.837   3.716   3.041
37569W        W90465  32.979  11.083   9.196
37570W        W90466   9.201   1.798   7.857
37571W        W90467   9.394  10.006   0.123
37572W        W90468  28.486  29.459   0.425
37573W        W90469  13.307  13.282   0.177
37574W        W90470   8.301  10.754   9.947
37575W        W90471  10.941  31.911   0.126
37576W        W90472  13.668  22.622   1.259
37577W        W90473  16.703   4.853   3.249
37578W        W90474   4.368  23.560   8.204
37579W        W90475  26.831  17.549   0.726
37580W        W90476  10.267  34.651   7.933
37581W        W90477  35.944   9.070   2.425
37582W        W90478  32.319  22.391   2.289
37583W        W90479  19.552  20.760   0.672
37584W        W90480   0.937  35.293   2.102
37585W        W90481  35.339  24.414   3.269
37586W        W90482  28.922  29.126   0.315
37587W        W90483  11.761   0.990   0.646
37588W        W90484  19.941  17.725   9.512
37589W        W90485  25.978   3.294   1.643
37590W        W90486   4.689  31.424   9.679
37591W        W90487  15.788  10.997   9.159
37592W        W90488  17.984  30.737   7.210
37593W        W90489  20.151  11.485   1.912
37594W        W90490   5.370   5.898   8.011
37595W        W90491  33.029  15.841   9.216
37596W        W90492   6.639   4.736   9.479
37597W        W90493  22.364  14.694   0.208
37598W        W90494  26.083  20.462   7.872
37599W        W90495  29.443   5.529   0.271
37600W        W90496  27.091  34.557   1.342
37601W        W90497  30.945  17.944   9.295
37602W        W90498   3.685  11.110   2.679
37603W        W90499   4.439  24.820   1.361
37604W        W90500  23.703  23.917  10.150
37605W        W90501  26.439   7.409   1.118
37606W        W90502   6.369   7.283   9.182
37607W        W90503   2.081  10.984   0.477
37608W        W90504   0.292  24.462   0.495
37609W        W90505  20.131  16.446   0.484
37610W        W90506  12.287  14.351   9.062
37611W        W90507   7.216  19.062   9.509
37612W        W90508  14.856  11.568   9.545
37613W        W90509  10.347  34.884   0.228
37614W        W90510  20.157   3.780   3.037
37615W        W90511  28.769  26.759   8.944
37616W        W90512   5.944  28.951   1.824
37617W        W90513  31.270   0.879   9.474
37618W        W90514  18.183  11.877   2.205
37619W        W90515  10.475  16.166   1.516
37620W        W90516  34.043  26.771   2.392
37621W        W90517   0.050   8.135   3.118
37622W        W90518  14.817  34.982   9.717
37623W        W90519  17.670  13.424   1.359
37624W        W90520  29.904   9.897   3.151
37625W        W90521  28.199  30.644   0.525
37626W        W90522   1.273  25.983   0.058
37627W        W90523  26.560  22.607   7.426
37628W        W90524  14.566  32.224   9.074
37629W        W90525  23.885  31.812   1.127
37630W        W90526  16.307  18.765   3.211
37631W        W90527  29.432  32.646   8.031
37632W        W90528  35.891  19.568   8.064
37633W        W90529   2.161  18.591   1.264
37634W        W90530  28.220   8.415   8.261
37635W        W90531  15.905  15.257   9.776
37636W        W90532   9.520  32.858   8.126
37637W        W90533  16.020   0.183   2.355
37638W        W90534   7.588  29.770   1.048
37639W        W90535  35.642   6.726   8.089
37640W        W90536   5.521  11.128   2.497
37641W        W90537   0.088   2.364   8.430
37642W        W90538  10.786  28.799   9.391
37643W        W90539  21.599  14.891   2.360
37644W        W90540  27.523  24.279   9.591
37645W        W90541   0.585  34.818   8.516
37646W        W90542   7.276  27.701   7.191
37647W        W90543  12.312  10.673   2.374
37648W        W90544  28.815   8.646   9.004
37649W        W90545   3.950   6.361   1.542
37650W        W90546  22.979  15.872   2.962
37651W        W90547   5.448   5.001  10.091
37652W        W90548  24.746   1.978   8.347
37653W        W90549   4.847  20.215   9.173
37654W        W90550  13.261   3.317   0.693
37655W        W90551   0.313  31.799  10.091
37656W        W90552  34.961  31.227  10.206
37657W        W90553   1.867   1.232   0.559
37658W        W90554   1.050  11.092   9.412
37659W        W90555   2.250   3.396   9.509
37660W        W90556  32.856  16.257   8.182
37661W        W90557  14.041  32.903   7.687
37662W        W90558  23.895  31.850   9.945
37663W        W90559  32.185   4.043   0.017
37664W        W90560   0.704   3.587   3.674
37665W        W90561  21.253  21.078   3.308
37666W        W90562  13.828   9.883   8.257
37667W        W90563  10.171  33.633   8.974
37668W        W90564  25.560  16.932   8.589
37669W        W90565  15.800  30.366   8.420
37670W        W90566   1.697   2.585   0.579
37671W        W90567   8.353   7.766   7.678
37672W        W90568   2.973  27.561   2.928
37673W        W90569  17.031  11.229   9.181
37674W        W90570  14.824   5.613   0.266
37675W        W90571  15.139  24.162   1.100
37676W        W90572   0.213  18.929   3.544
37677W        W90573  24.406  11.584   2.175
37678W        W90574  13.772  22.456   0.022
37679W        W90575   7.889  32.724   9.317
37680W        W90576  12.205  35.542   9.149
37681W        W90577  29.935  30.205   0.658
37682W        W90578  14.939   6.187   7.934
37683W        W90579  23.925  10.490   7.752
37684W        W90580   4.148  13.172   7.861
37685W        W90581  13.515   2.338   9.904
37686W        W90582  21.325   0.325   2.178
37687W        W90583  35.799  12.402   8.732
37688W        W90584  11.702   9.549   2.903
37689W        W90585   5.309   4.196  10.226
37690W        W90586  28.443   5.406   1.436
37691W        W90587  14.770  26.837   0.574
37692W        W90588   0.814   5.083   2.677
37693W        W90589  29.506  22.466   0.170
37694W        W90590  12.605  14.109   8.190
37695W        W90591  21.780  25.449   1.350
37696W        W90592  24.770   5.793   9.436
37697W        W90593  32.956   1.535   3.225
37698W        W90594   1.792  25.162   7.814
37699W        W90595   7.865  14.825   7.826
37700W        W90596  15.329   4.168   7.487
37701W        W90597  24.654   1.899   8.907
37702W        W90598  30.941   3.525   7.668
37703W        W90599   9.315  32.137   0.022
37704W        W90600   3.179   4.521   9.456
37705W        W90601  19.358  34.762   8.262
37706W        W90602   7.345  33.467   1.785
37707W        W90603   6.571  22.192   1.749
37708W        W90604  19.782  19.824   8.602
37709W        W90605  22.705  16.163   3.694
37710W        W90606   6.069  27.663   3.484
37711W        W90607   5.984  29.958   0.905
37712W        W90608  10.501  22.678   7.852
37713W        W90609  14.476   9.606   8.756
37714W        W90610  16.787  28.586   7.973
37715W        W90611  19.698  10.333  10.068
37716W        W90612  23.546  19.345  10.238
37717W        W90613   2.270  27.474   0.065
37718W        W90614  11.472  28.263   9.061
37719W        W90615  12.358  27.140   8.670
37720W        W90616  21.479  16.813   0.017
37721W        W90617  16.675   0.196   1.255
37722W        W90618  25.380  18.209   2.463
37723W        W90619   7.942  35.842   9.820
37724W        W90620  27.998  28.317   7.974
37725W        W90621  24.083  30.511   2.863
37726W        W90622   4.028   4.454   2.991
37727W        W90623   2.320  28.261   8.642
37728W        W90624  27.557  20.382   9.034
37729W        W90625  23.652  34.727   1.030
37730W        W90626  35.849  18.178   3.625
37731W        W90627  11.683  32.840   1.856
37732W        W90628  16.187   9.205   9.156
37733W        W90629  12.623  19.977   7.646
37734W        W90630  22.789  27.948   3.572
37735W        W90631   5.983   7.232   8.289
37736W        W90632  31.668   6.899   2.176
37737W        W90633  22.868  13.571   9.546
37738W        W90634  13.936  10.706   1.015
37739W        W90635  18.237   0.354   2.731
37740W        W90636  34.795   7.884   8.777
37741W        W90637  27.819  11.824   3.409
37742W        W90638  29.799  10.452   2.361
37743W        W90639   1.008  10.692   0.342
37744W        W90640   9.078   9.191   8.080
37745W        W90641  21.836  33.908  10.317
37746W        W90642  19.857   4.523   2.796
37747W        W90643  23.274  20.225   3.246
37748W        W90644   9.999   9.147   1.805
37749W        W90645   4.681  23.737   3.044
37750W        W90646   8.925  32.356   7.536
37751W        W90647  12.821   2.645   2.418
37752W        W90648  31.211  17.755   2.507
37753W        W90649  16.855  32.826   8.924
37754W        W90650   7.399  24.530  10.059
37755W        W90651   6.124  15.126   2.720
37756W        W90652  18.362  13.816   2.443
37757W        W90653  16.825  11.628   7.827
37758W        W90654  24.358  34.570   0.891
37759W        W90655  12.644  12.276   2.803
37760W        W90656  30.404  18.371   2.273
37761W        W90657   7.725   5.283   9.581
37762W        W90658  22.934  17.618   1.532
37763W        W90659  21.248  10.439   9.637
37764W        W90660  16.857  27.554   3.348
37765W        W90661  15.519  22.445   2.959
37766W        W90662  27.621   6.140   3.244
37767W        W90663  35.901  22.555   0.094
37768W        W90664  17.721   8.647   9.332
37769W        W90665  33.250  18.643   9.954
37770W        W90666   7.109   6.502   8.561
37771W        W90667  22.605  27.081   2.320
37772W        W90668   7.417  24.257   7.684
37773W        W90669   4.608  24.279   3.700
37774W        W90670   0.147  20.054   2.044
37775W        W90671  13.695  29.692   7.905
37776W        W90672  28.417   3.457  10.253
37777W        W90673  14.464  25.066   1.555
37778W        W90674  33.852  27.434   9.994
37779W        W90675  29.045  22.572   7.967
37780W        W90676  10.091   1.360   6.880
37781W        W90677  34.306   1.294   7.886
37782W        W90678   7.286  23.231   7.439
37783W        W90679  25.972   8.138   1.799
37784W        W90680   8.993  31.485   2.221
37785W        W90681  19.534  32.583   0.370
37786W        W90682  29.764   3.827   2.590
37787W        W90683  13.211  24.760   7.023
37788W        W90684  20.474  27.777   2.920
37789W        W90685  19.097  17.316   1.481
37790W        W90686   1.662   2.001   2.845
37791W        W90687   6.851  25.237   2.380
37792W        W90688  21.303  28.655   1.162
37793W        W90689   0.004  10.264   9.721
37794W        W90690  13.372  15.579   3.694
37795W        W90691  10.242  30.643   2.591
37796W        W90692  18.234  12.892   3.705
37797W        W90693  31.158   1.130   1.593
37798W        W90694  29.882  30.898   1.581
37799W        W90695   9.029  16.254   1.874
37800W        W90696  16.373  16.857   7.998
37801W        W90697  10.768   3.706   2.202
37802W        W90698  18.731  29.207   1.695
37803W        W90699  22.747  13.322   0.068
37804W        W90700   4.397   2.639   0.329
37805W        W90701  11.669  26.400   7.749
37806W        W90702  23.219  33.135   2.642
37807W        W90703  31.529  35.926   0.959
37808W        W90704  32.059  20.115   9.754
37809W        W90705  20.218   2.766   3.402
37810W        W90706  23.709  17.305   8.937
37811W        W90707  19.235  22.714   0.378
37812W        W90708  34.538   9.101   9.721
37813W        W90709  27.709  34.399   8.312
37814W        W90710  15.428  15.858   1.929
37815W        W90711   0.334  24.926   9.714
37816W        W90712  23.392  30.852   2.816
37817W        W90713  31.934  20.289   3.155
37818W        W90714  26.676  19.463   1.534
37819W        W90715  17.414  21.515  10.181
37820W        W90716   6.088  35.581   1.745
37821W        W90717  34.730  23.157   2.623
37822W        W90718   9.213  26.119   1.346
37823W        W90719  31.052  10.969   9.437
37824W        W90720   1.383  13.134   2.440
37825W        W90721  31.276  35.187   1.431
37826W        W90722  13.471   2.959   2.050
37827W        W90723  35.838  19.644   1.717
37828W        W90724   8.012  14.108   8.640
37829W        W90725  26.072  14.601   2.632
37830W        W90726   7.985  19.471   9.850
37831W        W90727  19.930  14.858   0.632
37832W        W90728   7.050  18.714   3.041
37833W        W90729  11.990   8.143   9.870
37834W        W90730  14.817   2.290   1.883
37835W        W90731  33.760  11.884   0.958
37836W        W90732  35.459  10.809   9.195
37837W        W90733  29.570   1.872   2.936
37838W        W90734   4.879  26.043   1.434
37839W        W90735   1.107  13.793   3.567
37840W        W90736  20.806   0.601   8.781
37841W        W90737  18.540  11.589   1.953
37842W        W90738   6.467   5.558   7.992
37843W        W90739  30.199   5.335   8.353
37844W        W90740   3.239  26.865   1.035
37845W        W90741  28.502  28.937   0.344
37846W        W90742  17.642   8.570   1.734
37847W        W90743  24.488  33.446   0.096
37848W        W90744  30.948   8.190   0.701
37849W        W90745  14.440  35.838   1.955
37850W        W90746   5.814  29.782   3.390
37851W        W90747   0.977   6.049   3.704
37852W        W90748  10.202  12.844   0.622
37853W        W90749   2.145  26.857   7.529
37854W        W90750  22.568  28.119   8.722
37855W        W90751   6.918  17.740   0.299
37856W        W90752  15.414  34.090   9.701
37857W        W90753  13.285  28.994   8.384
37858W        W90754  24.327  15.512   0.185
37859W        W90755   1.591  11.973   0.383
37860W        W90756  26.792   5.763   3.168
37861W        W90757   9.605  26.867   9.548
37862W        W90758   5.014  21.353   7.538
37863W        W90759   5.330   2.917   0.624
37864W        W90760  30.256  25.967   7.223
37865W        W90761  31.599  13.182   9.857
37866W        W90762  16.787   4.226   0.345
37867W        W90763  27.591  32.320   8.252
37868W        W90764  28.194  32.185   8.679
37869W        W90765  16.304  18.952   2.466
37870W        W90766  25.422  10.135   2.216
37871W        W90767  33.094  19.604   0.620
37872W        W90768  11.643  15.602   0.322
37873W        W90769  35.987  27.468   1.190
37874W        W90770  28.857  24.475   0.058
37875W        W90771  10.012  13.542   3.272
37876W        W90772  15.682   2.769   0.150
37877W        W90773  18.552  30.341   8.457
37878W        W90774  12.081  25.142   2.971
37879W        W90775  17.780  21.513   9.809
37880W        W90776   6.228  27.657   7.594
37881W        W90777  30.832  29.466   7.763
37882W        W90778  19.079   4.528   1.671
37883W        W90779  21.983  13.447   2.597
37884W        W90780  26.466  34.881   0.035
37885W        W90781  30.029   7.907   8.139
37886W        W90782  26.116   3.027   0.017
37887W        W90783  28.816  31.210   8.282
37888W        W90784   7.198  16.429   1.912
37889W        W90785  22.258  18.606   8.976
37890W        W90786   6.977   2.188   1.470
37891W        W90787   9.520   8.192   2.826
37892W        W90788  34.178  11.752   7.838
37893W        W90789   3.665   9.883   8.526
37894W        W90790  21.899  12.465   3.454
37895W        W90791   7.597  19.936   7.317
37896W        W90792  31.605  17.902  10.116
37897W        W90793   8.644   8.230   1.727
37898W        W90794  35.298  26.148   7.420
37899W        W90795   8.101   9.012   9.246
37900W        W90796   0.925  18.169   8.610
37901W        W90797  16.100  16.093   3.111
37902W        W90798  27.981  24.918   8.574
37903W        W90799  10.504  31.304   0.600
37904W        W90800  21.423   5.250   0.560
37905W        W90801  31.727  27.812   2.132
37906W        W90802  13.709  10.745   0.585
37907W        W90803  18.370   8.204   1.033
37908W        W90804  22.892  18.624   3.626
37909W        W90805   1.701   0.107   8.581
37910W        W90806  31.135  16.636   7.704
37911W        W90807  15.938  18.370   7.674
37912W        W90808  32.206  15.017   1.741
37913W        W90809  15.824   8.224   1.296
37914W        W90810  20.679   5.962   0.065
37915W        W90811  11.627  35.050   2.471
37916W        W90812  24.605  19.517   1.596
37917W        W90813  17.275  28.584   1.503
37918W        W90814  19.667  13.490  10.024
37919W        W90815  16.313  10.526   1.707
37920W        W90816  29.069  11.201   2.393
37921W        W90817   5.664  33.457   8.440
37922W        W90818  12.728  31.532   1.689
37923W        W90819  29.455  14.902   2.624
37924W        W90820  32.627  23.872   1.976
37925W        W90821   3.233  15.133   1.530
37926W        W90822  33.704  29.749   0.488
37927W        W90823  17.948  20.743   3.426
37928W        W90824  15.539   0.607   9.129
37929W        W90825   7.618  28.436   1.385
37930W        W90826  29.537  27.141   8.821
37931W        W90827  21.339  25.366   8.453
37932W        W90828   9.870  14.125   9.062
37933W        W90829  11.393  10.355   8.119
37934W        W90830  17.729  22.885   0.047
37935W        W90831  21.899  19.502   0.117
37936W        W90832   8.047  31.446   2.552
37937W        W90833  23.692  27.736   2.084
37938W        W90834  32.761   8.807   1.753
37939W        W90835   0.615  33.818   9.676
37940W        W90836  14.647  22.466  10.310
37941W        W90837   9.164   2.149   8.683
37942W        W90838  15.725  16.522   9.590
37943W        W90839  16.401  27.446   1.970
37944W        W90840  25.155  16.352   2.842
37945W        W90841   2.457  17.191  10.152
37946W        W90842  12.254  25.605   7.896
37947W        W90843  31.944   0.215   3.124
37948W        W90844  30.112   0.083   0.234
37949W        W90845   7.071  21.163   0.827
37950W        W90846   8.075   7.383   7.589
37951W        W90847   8.856   6.672   0.832
37952W        W90848  26.451  26.000   8.416
37953W        W90849   6.030  35.156   7.533
37954W        W90850  18.857   1.093   8.764
37955W        W90851   4.922  19.037   9.960
37956W        W90852  27.332  30.516   8.676
37957W        W90853  19.117  13.701   1.515
37958W        W90854  10.637  35.884   0.789
37959W        W90855  15.992   3.100   1.873
37960W        W90856  16.486   1.224   7.590
37961W        W90857  10.803  17.149   0.127
37962W        W90858  10.592   7.643   1.944
37963W        W90859  24.527   9.760   2.447
37964W        W90860  12.813  14.043  10.279
37965W        W90861  21.922  33.473   9.733
37966W        W90862  29.548   0.611   8.705
37967W        W90863  35.499   5.465  10.292
37968W        W90864  27.306  28.846   2.085
37969W        W90865  32.993  12.356   0.371
37970W        W90866  21.889   5.359   2.271
37971W        W90867  32.116  19.648   9.372
37972W        W90868   0.819   9.480   2.105
37973W        W90869  20.913   8.775   1.459
37974W        W90870  20.264  16.736   9.180
37975W        W90871   3.973  17.646   7.737
37976W        W90872   1.949  24.228   7.485
37977W        W90873   6.631  12.908   8.124
37978W        W90874  24.717  26.060   2.856
37979W        W90875   7.735  21.990   8.844
37980W        W90876  28.223  20.626   8.920
37981W        W90877  33.991   7.498   1.536
37982W        W90878  18.003   6.542   9.879
37983W        W90879  31.195  24.623   0.525
37984W        W90880  34.518  13.078   2.882
37985W        W90881  19.762  17.035   8.972
37986W        W90882  19.154  25.895   1.668
37987W        W90883  15.614  16.633   1.136
37988W        W90884  11.152  10.264   8.552
37989W        W90885  21.510  22.529   3.298
37990W        W90886  19.409  29.871   9.383
37991W        W90887   6.291   3.361   9.465
37992W        W90888  30.017  35.955   9.368
37993W        W90889  14.665  31.227   0.882
37994W        W90890  12.226  25.048   7.721
37995W        W90891  28.563  30.050   2.348
37996W        W90892  34.378  27.119   2.800
37997W        W90893   2.071  17.584   9.987
37998W        W90894  32.431  32.641   1.729
37999W        W90895  17.705   7.426   2.110
38000W        W90896  32.553   9.525   8.670
38001W        W90897  10.546  20.366   9.609
38002W        W90898  34.304  12.462   9.941
38003W        W90899  10.274  18.737   2.209
38004W        W90900   5.552  32.474   7.539
38005W        W90901  17.129  31.443   1.154
38006W        W90902   4.535  26.694   8.186
38007W        W90903  21.055   4.266   3.266
38008W        W90904  34.740  16.354   0.461
38009W        W90905  26.195  23.394   7.992
38010W        W90906  21.592  27.538   2.569
38011W        W90907   0.690  34.229   7.947
38012W        W90908   8.924  18.112   2.779
38013W        W90909   7.380  20.552   7.894
38014W        W90910  32.002  28.084   9.506
38015W        W90911  10.711   7.781   1.363
38016W        W90912  25.019  30.859   2.017
38017W        W90913  11.615   5.408   0.680
38018W        W90914  33.210  14.891   3.318
38019W        W90915  26.387  27.474   9.275
38020W        W90916  23.510  35.347   1.915
38021W        W90917   7.690  27.093   9.307
38022W        W90918  35.502   5.338   1.493
38023W        W90919   2.043  27.538   2.741
38024W        W90920  30.104   3.015   8.533
38025W        W90921  15.437  31.751   8.126
38026W        W90922  17.584   3.441   9.119
38027W        W90923  23.875  11.600   2.236
38028W        W90924   2.153  29.044   0.138
38029W        W90925  15.365  27.844   2.397
38030W        W90926  11.958   3.486   8.811
38031W        W90927  32.707   6.249   2.338
38032W        W90928  25.738  31.734   1.139
38033W        W90929  22.645   9.265  10.015
38034W        W90930  23.826   7.440   1.517
38035W        W90931  17.421   0.294   8.437
38036W        W90932   6.386  15.544   2.906
38037W        W90933  18.436  16.717   9.999
38038W        W90934   3.920  22.073   9.102
38039W        W90935  10.574  33.847   1.891
38040W        W90936  27.911  10.662   1.123
38041W        W90937   5.977  32.651   7.894
38042W        W90938  26.527  31.405   0.036
38043W        W90939  21.203  16.650   8.674
38044W        W90940  26.237   2.533   2.062
38045W        W90941  25.293  29.358   2.543
38046W        W90942  31.235  22.082   7.001
38047W        W90943  32.365   3.683   8.133
38048W        W90944   1.064  13.126   2.096
38049W        W90945   0.390  15.154   8.994
38050W        W90946   0.363  23.484   9.848
38051W        W90947  19.269  11.155   9.645
38052W        W90948   2.415  25.969  10.310
38053W        W90949  29.858  23.377   0.278
38054W        W90950  30.801  10.853   1.030
38055W        W90951  19.396  25.779   3.097
38056W        W90952  34.677   4.310   1.330
38057W        W90953  12.232  22.299   8.673
38058W        W90954   1.659  26.428   8.243
38059W        W90955   2.329   0.594   7.285
38060W        W90956  22.715   8.542   2.160
38061W        W90957  29.218  17.421   1.378
38062W        W90958   3.104   4.125   9.113
38063W        W90959  25.296   7.139   7.788
38064W        W90960  19.282  22.252   2.911
38065W        W90961  16.060   6.689  10.119
38066W        W90962  19.290  24.366   2.887
38067W        W90963   8.813   9.810   1.436
38068W        W90964  24.035  21.995   0.127
38069W        W90965  17.784  14.279   1.864
38070W        W90966   7.590  11.735  10.075
38071W        W90967  15.042  19.685   0.550
38072W        W90968  23.885  12.980   7.632
38073W        W90969  24.990   6.673   2.546
38074W        W90970  17.900  25.990   9.272
38075W        W90971  18.332   7.996   2.898
38076W        W90972  24.930   4.110   1.998
38077W        W90973  11.392   3.025   0.396
38078W        W90974   1.160  20.368   8.173
38079W        W90975  17.706  34.660   1.103
38080W        W90976   4.222  35.958   1.186
38081W        W90977  25.948  13.736   1.877
38082W        W90978  11.430  15.601   9.693
38083W        W90979  11.687  27.834   7.607
38084W        W90980  19.905  23.506  10.228
38085W        W90981  15.505  32.226   0.716
38086W        W90982   9.831  12.661   3.439
38087W        W90983  12.266  11.852   8.476
38088W        W90984  26.843  18.264   2.331
38089W        W90985  12.000  21.326   9.041
38090W        W90986   6.127   3.445   7.292
38091W        W90987   0.086  34.844   1.235
38092W        W90988  10.349  33.183   7.611
38093W        W90989  31.747  24.435   2.382
38094W        W90990  13.052  23.817   9.388
38095W        W90991   8.801  12.402   1.099
38096W        W90992  27.963  10.335   0.237
38097W        W90993  21.404   0.683   9.528
38098W        W90994  23.458  31.530   1.602
38099W        W90995  20.500  25.861   0.305
38100W        W90996  23.300  26.933   1.120
38101W        W90997  24.214  10.543   8.507
38102W        W90998   8.729  27.327   8.010
38103W        W90999  29.032  11.174   0.806
38104W        W91000  19.873  22.788   8.706
38105W        W91001   4.566   1.463  10.171
38106W        W91002  19.573   1.254   9.157
38107W        W91003  22.258  13.539   0.050
38108W        W91004  13.170  24.187   1.648
38109W        W91005  34.060   7.106   1.946
38110W        W91006  10.889  23.137   0.030
38111W        W91007  15.414   1.962   8.608
38112W        W91008  15.737  29.650   3.084
38113W        W91009  25.563  11.281   8.374
38114W        W91010   6.160   3.352   1.247
38115W        W91011   1.273   4.453   8.360
38116W        W91012  23.924   5.631   1.065
38117W        W91013  31.012   1.197   2.293
38118W        W91014   4.533  18.773   1.291
38119W        W91015  27.382  14.019   9.614
38120W        W91016   1.904  16.397   9.368
38121W        W91017   2.498  10.787   0.310
38122W        W91018  28.185   5.732   8.962
38123W        W91019   2.777  26.704   9.298
38124W        W91020  28.853   7.413   1.182
38125W        W91021  13.821   1.078   1.763
38126W        W91022  18.279  34.745   2.647
38127W        W91023  10.288  16.363   1.116
38128W        W91024  25.744   4.812   2.826
38129W        W91025  23.027   0.193   1.809
38130W        W91026  34.899  25.518   0.133
38131W        W91027   2.423  28.221   7.418
38132W        W91028  26.003   0.249   0.183
38133W        W91029  23.916  12.946   0.622
38134W        W91030  22.678  28.371  10.241
38135W        W91031   5.066  22.724   8.810
38136W        W91032  23.941  18.578   9.382
38137W        W91033  32.808   8.879   9.999
38138W        W91034  26.947  26.127   8.358
38139W        W91035  33.594  13.679   2.936
38140W        W91036   0.572  12.794  10.321
38141W        W91037  34.012   2.315   1.291
38142W        W91038  22.996  18.024   3.357
38143W        W91039   5.820  10.840   2.011
38144W        W91040  30.445  33.847  10.035
38145W        W91041  12.541  27.320   9.743
38146W        W91042  21.317  17.014   9.876
38147W        W91043   4.636  18.076   2.579
38148W        W91044  11.189  11.350   0.623
38149W        W91045  20.386  16.448   1.855
38150W        W91046  18.079   7.002  10.088
38151W        W91047  14.878  28.407   8.191
38152W        W91048   2.860  31.688   1.164
38153W        W91049  12.941  22.597   9.736
38154W        W91050  21.715   0.149   0.040
38155W        W91051  33.276  31.770   2.068
38156W        W91052  25.174   3.644   2.565
38157W        W91053  19.319   7.662   3.592
38158W        W91054  27.168  13.548   9.595
38159W        W91055  24.347  18.598   8.633
38160W        W91056  11.528  12.621   3.137
38161W        W91057   4.279   5.781  10.084
38162W        W91058  23.554   0.459   7.532
38163W        W91059  21.139  20.123   8.836
38164W        W91060  21.393  22.294   2.839
38165W        W91061  19.114  23.179   0.157
38166W        W91062  29.943  30.232   7.766
38167W        W91063  24.543  33.020   8.377
38168W        W91064  28.066  21.391   3.373
38169W        W91065  31.956  15.898   2.775
38170W        W91066  31.897  30.795   1.218
38171W        W91067  21.586   3.603   1.448
38172W        W91068  24.604   2.607  10.333
38173W        W91069  19.078  34.964   9.672
38174W        W91070  28.397   8.505   1.136
38175W        W91071  15.323  13.906   1.133
38176W        W91072  21.225  30.890   2.428
38177W        W91073  20.899  33.566   0.455
38178W        W91074  14.222  30.680  10.223
38179W        W91075   8.776  20.895   9.131
38180W        W91076  28.260  13.099   1.233
38181W        W91077   1.343  27.314   9.622
38182W        W91078  12.555   8.380   8.830
38183W        W91079  16.572  31.402   9.747
38184W        W91080   9.298  25.106   8.193
38185W        W91081  34.275  25.828   0.888
38186W        W91082   6.586  23.550   7.998
38187W        W91083  25.198  31.645   9.770
38188W        W91084  19.788  16.319   1.298
38189W        W91085  30.351  16.756   7.567
38190W        W91086  20.730   7.083   8.197
38191W        W91087  31.730  12.420   8.762
38192W        W91088   6.794   1.171   0.673
38193W        W91089  13.088  27.531   2.174
38194W        W91090  19.678  35.953   0.357
38195W        W91091  35.828   1.564   7.851
38196W        W91092   8.478  13.111   2.025
38197W        W91093  34.365   6.608   9.960
38198W        W91094   5.215   4.151   0.416
38199W        W91095  27.422   5.883   8.661
38200W        W91096  21.252  33.367   8.076
38201W        W91097  31.996  25.128   1.427
38202W        W91098   5.341   4.848   2.142
38203W        W91099  30.985  10.377  10.161
38204W        W91100  11.180   6.469   7.920
38205W        W91101  31.332  11.759   4.228
38206W        W91102  31.503  25.295   9.918
38207W        W91103   0.749  21.187   7.745
38208W        W91104   6.893  31.650   1.275
38209W        W91105  14.343  10.007  10.037
38210W        W91106  14.956   9.441   8.387
38211W        W91107  33.130  28.477   8.125
38212W        W91108   3.527   9.007   8.595
38213W        W91109  24.621  24.683   1.226
38214W        W91110  20.903   7.062   9.138
38215W        W91111   0.139  15.383   3.298
38216W        W91112  18.890  13.796   3.194
38217W        W91113  32.598  30.008   2.824
38218W        W91114  32.530  25.533   2.086
38219W        W91115  28.796  26.067   2.078
38220W        W91116  33.162  15.271   1.318
38221W        W91117  31.641   9.986   1.750
38222W        W91118  28.525   7.030   8.347
38223W        W91119  35.883   0.648   7.401
38224W        W91120  18.131  29.484   8.368
38225W        W91121  19.159  30.152   2.973
38226W        W91122  22.300   9.305   2.669
38227W        W91123  16.497  22.972   1.295
38228W        W91124  24.628  21.082   3.070
38229W        W91125  32.534  18.746   8.821
38230W        W91126  29.601  26.004   8.794
38231W        W91127  30.033  22.446   9.951
38232W        W91128   5.314  34.427   0.223
38233W        W91129  31.263  26.346   8.238
38234W        W91130  27.581  13.527   2.960
38235W        W91131  22.637  34.468   9.656
38236W        W91132  12.183  19.035   9.686
38237W        W91133   8.166   5.575   9.312
38238W        W91134  10.718  31.440   8.534
38239W        W91135  31.985  30.948   2.722
38240W        W91136  11.755  25.152   2.366
38241W        W91137  28.216   8.221   9.503
38242W        W91138  17.249  19.388   1.165
38243W        W91139  28.560   5.549   9.312
38244W        W91140  23.232   7.757   2.533
38245W        W91141  16.616  35.738   8.729
38246W        W91142  19.650  30.214   2.766
38247W        W91143  25.008  34.868   9.927
38248W        W91144   6.819  34.921   0.489
38249W        W91145  21.112  29.558   7.310
38250W        W91146  14.190  10.517  10.078
38251W        W91147  29.320  29.360   8.668
38252W        W91148  32.311  22.044   7.748
38253W        W91149  11.677  26.126   9.092
38254W        W91150  14.269  33.366   9.969
38255W        W91151   0.640  30.460   1.682
38256W        W91152  33.332  12.009   9.005
38257W        W91153  24.238  23.322   8.162
38258W        W91154  31.041  27.935   0.630
38259W        W91155  26.870   2.537   2.926
38260W        W91156  19.228  19.910   2.559
38261W        W91157  29.502  11.037   7.217
38262W        W91158  18.097  29.320   3.025
38263W        W91159  34.791  18.175   8.703
38264W        W91160  13.752  23.761   3.502
38265W        W91161  27.599   4.925   8.396
38266W        W91162  25.602  21.688   7.483
38267W        W91163  27.035   5.010  10.158
38268W        W91164  26.499  24.491   7.602
38269W        W91165  32.524  27.084   1.206
38270W        W91166  24.714  31.574   2.172
38271W        W91167  19.150   8.018   2.619
38272W        W91168   8.376   5.996   2.173
38273W        W91169  12.711  35.294   2.080
38274W        W91170  21.020  21.851   7.696
38275W        W91171  23.332  31.643   0.087
38276W        W91172  24.086  33.106   9.273
38277W        W91173  26.552  20.606   9.867
38278W        W91174  31.942  29.878   0.875
38279W        W91175  30.262  11.665   9.565
38280W        W91176  13.453  19.342   1.114
38281W        W91177  16.905   2.316   0.404
38282W        W91178  32.714  33.238   8.976
38283W        W91179  26.219   0.107   2.527
38284W        W91180   4.912   0.062   7.236
38285W        W91181  35.314   2.436   2.097
38286W        W91182  26.652  14.519   8.101
38287W        W91183   2.619  30.657   0.252
38288W        W91184   1.787  23.955   2.066
38289W        W91185  11.115  14.807   7.998
38290W        W91186   1.377  15.376   3.303
38291W        W91187  10.855   7.344   2.759
38292W        W91188  19.935  13.340   8.135
38293W        W91189  28.959  31.668   8.476
38294W        W91190  35.956  30.271   2.151
38295W        W91191  35.753   3.690   8.198
38296W        W91192  18.527  14.072   2.804
38297W        W91193  24.340  29.784   8.814
38298W        W91194  20.456  26.545   0.894
38299W        W91195  14.731   6.169   2.646
38300W        W91196   8.056  21.375   2.638
38301W        W91197  33.959  17.156   0.024
38302W        W91198  32.669   8.726   9.158
38303W        W91199   3.949  25.543   7.458
38304W        W91200  23.293  25.168   2.478
38305W        W91201  24.038  20.458   9.051
38306W        W91202  10.516  31.744   1.642
38307W        W91203  12.449  20.377   8.815
38308W        W91204   1.283  10.377   7.819
38309W        W91205  10.579  23.737   6.604
38310W        W91206   8.128  29.155   0.872
38311W        W91207   1.511  28.085   9.110
38312W        W91208  31.527  17.860   7.569
38313W        W91209   1.779  16.996   8.110
38314W        W91210  14.320  23.898   1.860
38315W        W91211  15.043  34.845   1.048
38316W        W91212  31.262  21.856   8.108
38317W        W91213   2.123  14.165   2.283
38318W        W91214   3.553  32.394   2.621
38319W        W91215  31.506   8.055   1.268
38320W        W91216  10.846  22.391   2.486
38321W        W91217  34.670   2.007   1.477
38322W        W91218  17.548  18.602   8.740
38323W        W91219  14.649  29.246   8.942
38324W        W91220   3.918   2.264   1.562
38325W        W91221  11.991   7.100   9.157
38326W        W91222   3.200  25.416   0.025
38327W        W91223   8.506  31.179   8.023
38328W        W91224  32.792   4.518   0.826
38329W        W91225  22.320  35.537   1.659
38330W        W91226  20.194  18.306   8.384
38331W        W91227   8.953  29.007  10.131
38332W        W91228  34.873  13.320   9.058
38333W        W91229  15.932  10.940   2.383
38334W        W91230   2.940   8.960   7.996
38335W        W91231  23.890  17.288   2.193
38336W        W91232  25.354   4.292   7.181
38337W        W91233  33.845  30.584   8.872
38338W        W91234  25.385   9.869   3.806
38339W        W91235  26.484  28.472  10.184
38340W        W91236  33.237  15.633   2.697
38341W        W91237  28.602  22.880   8.294
38342W        W91238  24.156  13.537  10.000
38343W        W91239  31.400  15.271   7.532
38344W        W91240  30.035  11.343   2.870
38345W        W91241  14.136  26.789   1.731
38346W        W91242   4.351   4.887   8.687
38347W        W91243   2.298   7.184   2.716
38348W        W91244  23.522  12.390   0.341
38349W        W91245   3.915   5.494   8.054
38350W        W91246  21.121  28.283   0.847
38351W        W91247   9.162  20.227   8.583
38352W        W91248  15.581  24.315   0.890
38353W        W91249  23.455  32.340   0.623
38354W        W91250   5.329  33.767   9.287
38355W        W91251  32.261  31.435   2.633
38356W        W91252  26.886  12.431   0.563
38357W        W91253  12.200  26.672   8.555
38358W        W91254  22.303  22.812   1.573
38359W        W91255  16.215  19.009   0.572
38360W        W91256   2.809  20.659   1.387
38361W        W91257  16.883  19.414   8.267
38362W        W91258   9.349  30.657   0.495
38363W        W91259  18.382  32.409   1.201
38364W        W91260  24.536   9.173   1.649
38365W        W91261   5.312  19.283   1.793
38366W        W91262   1.598  31.866   8.495
38367W        W91263   0.209   1.290   2.335
38368W        W91264  12.663  14.399   3.423
38369W        W91265  14.958   3.738   2.142
38370W        W91266   3.837   5.778   2.587
38371W        W91267  29.587   9.075   0.620
38372W        W91268  13.110  14.849   2.821
38373W        W91269  24.363  32.051   9.933
38374W        W91270  10.155  17.449   8.058
38375W        W91271   6.290  25.326   1.259
38376W        W91272   6.459  28.785   8.536
38377W        W91273  23.738  25.382   2.464
38378W        W91274  10.451  31.146   7.265
38379W        W91275  19.027  13.086   8.422
38380W        W91276   5.832  32.943   1.083
38381W        W91277  18.238  22.504   1.882
38382W        W91278  29.747  35.864   8.435
38383W        W91279   0.933  24.321  10.090
38384W        W91280  21.030  19.545   8.853
38385W        W91281  27.074  29.366   8.490
38386W        W91282   3.356  24.221   9.590
38387W        W91283   4.895  13.367   0.591
38388W        W91284  11.036  35.212   0.910
38389W        W91285   0.926  27.773   3.824
38390W        W91286  15.084   6.792   1.383
38391W        W91287   0.681   0.313   0.560
38392W        W91288   9.850   8.272   9.617
38393W        W91289  33.652  29.823   2.403
38394W        W91290  15.163   2.656   2.296
38395W        W91291  27.024   7.131   9.441
38396W        W91292   0.221  14.289   1.895
38397W        W91293  11.460   2.327  10.059
38398W        W91294   0.974   4.718   2.379
38399W        W91295   3.745  23.359   1.880
38400W        W91296   8.915  12.829   3.796
38401W        W91297  30.740  13.420   8.041
38402W        W91298  20.776  12.218   1.925
38403W        W91299  29.143  23.959   0.294
38404W        W91300  18.780  18.341   8.070
38405W        W91301  33.311  24.853   9.148
38406W        W91302   4.816  19.161   7.702
38407W        W91303  26.383   2.487   8.938
38408W        W91304   4.222  11.961   0.789
38409W        W91305  18.494   4.370   8.477
38410W        W91306  26.437  32.423   1.485
38411W        W91307  31.627  10.596   0.553
38412W        W91308  10.506  33.113   9.459
38413W        W91309  25.141  16.843   2.888
38414W        W91310   3.804  31.931   1.478
38415W        W91311  25.542  28.154   8.282
38416W        W91312  20.838  28.307   2.237
38417W        W91313   9.667  34.739   9.438
38418W        W91314   1.347  11.526   2.234
38419W        W91315   4.311  18.397   2.290
38420W        W91316  32.568   2.405   1.831
38421W        W91317  24.744  19.149   3.838
38422W        W91318   8.321  25.627   0.121
38423W        W91319  18.088  12.749   0.864
38424W        W91320   0.720  10.498   8.066
38425W        W91321  18.419   3.926   1.267
38426W        W91322  11.256   7.247   0.470
38427W        W91323  11.326  22.857   2.702
38428W        W91324  30.768  26.016   9.264
38429W        W91325  20.636  14.633   1.824
38430W        W91326  18.181  32.510   8.030
38431W        W91327  28.690  26.581  10.304
38432W        W91328  24.423  13.939  10.192
38433W        W91329   0.371  34.369   8.382
38434W        W91330   3.332  24.598   1.605
38435W        W91331  27.493  28.923   7.899
38436W        W91332  13.699  19.635   7.517
38437W        W91333  29.333   6.262   7.549
38438W        W91334  23.291  13.294   0.039
38439W        W91335  21.172   5.288   1.659
38440W        W91336  34.565  20.719   0.583
38441W        W91337  23.918   3.315   2.843
38442W        W91338  12.652   4.649   8.617
38443W        W91339  13.202  30.985   9.111
38444W        W91340  35.058  22.719   0.921
38445W        W91341  16.645  27.012  10.073
38446W        W91342   7.728   6.883   9.900
38447W        W91343  32.867  32.200   8.189
38448W        W91344  17.755  21.497   2.578
38449W        W91345   8.624   1.585   0.281
38450W        W91346  16.793  17.051  10.118
38451W        W91347   0.537  21.348   2.854
38452W        W91348  15.399   7.618   2.527
38453W        W91349  11.673   7.984   9.030
38454W        W91350  15.786  30.337   9.869
38455W        W91351   4.992  12.804   1.353
38456W        W91352  24.548  28.068   0.209
38457W        W91353   7.502  31.453   8.150
38458W        W91354  27.075  17.443   1.977
38459W        W91355  10.191  27.101   1.968
38460W        W91356  11.187  21.690   8.827
38461W        W91357   7.944  26.802   8.033
38462W        W91358   0.806  27.289   7.528
38463W        W91359  15.403   2.191   2.345
38464W        W91360  19.103  29.382   7.575
38465W        W91361  35.707  18.093   9.908
38466W        W91362  23.484  24.379   2.042
38467W        W91363  34.797   8.169   9.999
38468W        W91364  17.817   2.347   2.008
38469W        W91365  21.485  31.725   1.505
38470W        W91366  14.082  33.795   1.456
38471W        W91367   6.403  25.498   8.801
38472W        W91368  12.330  26.859   9.834
38473W        W91369   9.787  22.737   7.299
38474W        W91370   5.136  26.827   1.137
38475W        W91371   3.723   8.958  10.292
38476W        W91372  29.957  32.403   2.447
38477W        W91373  13.831  26.223   0.328
38478W        W91374   9.694  20.772   1.104
38479W        W91375  24.801   6.127   2.179
38480W        W91376  25.475  10.240   9.254
38481W        W91377   1.512  11.969   9.609
38482W        W91378  34.896   1.638   3.054
38483W        W91379  30.093  20.100   9.341
38484W        W91380   1.935  24.267   1.679
38485W        W91381  17.536  23.187   1.837
38486W        W91382   7.514  14.307   8.487
38487W        W91383  17.083   0.855   9.616
38488W        W91384  18.644  28.223   1.692
38489W        W91385  22.726   5.413   0.805
38490W        W91386  35.222  28.072   2.090
38491W        W91387  34.725   8.928   1.699
38492W        W91388  20.704  13.255  10.309
38493W        W91389   5.366   6.374   2.684
38494W        W91390  13.215  20.786   3.392
38495W        W91391  22.619  25.696   9.789
38496W        W91392   3.636   4.185   2.855
38497W        W91393  25.845  25.527   8.360
38498W        W91394  12.607   9.113   0.546
38499W        W91395  10.880  33.521   9.632
38500W        W91396   0.211   0.759   7.042
38501W        W91397  31.665  18.178   2.651
38502W        W91398  29.163   1.009   0.612
38503W        W91399   0.402  21.001   1.607
38504W        W91400  13.381   9.108   8.282
38505W        W91401  34.507  20.147  10.072
38506W        W91402   4.975  10.950   0.723
38507W        W91403   5.732  22.827   9.332
38508W        W91404  12.127  34.748   0.467
38509W        W91405  30.387  29.763   3.516
38510W        W91406  33.685  17.983   1.785
38511W        W91407  12.535  11.335   7.160
38512W        W91408  35.163  29.062   8.202
38513W        W91409  20.664  17.122   9.208
38514W        W91410   8.798  15.401   1.106
38515W        W91411  19.099   0.722   0.055
38516W        W91412  12.906  34.592   0.164
38517W        W91413  28.450   7.985   0.423
38518W        W91414  15.297  17.975   0.227
38519W        W91415  30.838  12.959   3.401
38520W        W91416   7.829   2.177   7.066
38521W        W91417  31.439  23.998   0.933
38522W        W91418  13.293   2.952   0.325
38523W        W91419  20.488   0.653   2.257
38524W        W91420  10.686  20.367   2.324
38525W        W91421  18.940  16.193   2.462
38526W        W91422   4.501  10.039  10.013
38527W        W91423  25.534  11.331   0.057
38528W        W91424  16.885  27.042   9.152
38529W        W91425   0.834  25.773   9.106
38530W        W91426  18.338  23.700   2.193
38531W        W91427   5.662  17.633   0.980
38532W        W91428   7.836  27.677   2.194
38533W        W91429   2.475   7.829   1.279
38534W        W91430  19.897  17.443   3.597
38535W        W91431   4.561   2.722   9.789
38536W        W91432   0.357  10.919   1.529
38537W        W91433  27.455  32.804   9.550
38538W        W91434  35.811  26.624   1.601
38539W        W91435  34.482  17.187   8.637
38540W        W91436  11.937   4.062   0.869
38541W        W91437  28.519  14.154   2.406
38542W        W91438  10.809  14.985   3.052
38543W        W91439   3.508  25.507   2.555
38544W        W91440  30.612  11.195   9.515
38545W        W91441  33.843  17.017   1.772
38546W        W91442   8.264  15.817   2.130
38547W        W91443   2.057   5.114   1.906
38548W        W91444   5.556  25.273   2.238
38549W        W91445   2.870  12.799   0.475
38550W        W91446   8.180  17.342   0.968
38551W        W91447   6.814  21.111   8.293
38552W        W91448   8.293   7.347   1.215
38553W        W91449   6.879  32.282   9.989
38554W        W91450  15.815   7.459   1.802
38555W        W91451   3.764   0.899   2.629
38556W        W91452   1.459   1.547   7.984
38557W        W91453  13.658  14.071   2.915
38558W        W91454  16.204  21.976   3.543
38559W        W91455  15.366  23.087   2.211
38560W        W91456  22.468   7.440   9.951
38561W        W91457  26.482   0.271   1.229
38562W        W91458   1.655  18.848   0.125
38563W        W91459  35.032   1.690   9.542
38564W        W91460  13.904  24.702   2.126
38565W        W91461  32.800  22.649   0.894
38566W        W91462   7.723   4.071   9.666
38567W        W91463  31.898   0.824   0.319
38568W        W91464   1.569  17.310   3.152
38569W        W91465  18.338  15.403   8.870
38570W        W91466   6.686  12.711  10.031
38571W        W91467   9.385   8.674   6.966
38572W        W91468  29.834  32.725   0.039
38573W        W91469  32.193   3.199   3.155
38574W        W91470   4.540   2.788   2.224
38575W        W91471   0.028  14.332   0.425
38576W        W91472   2.815  26.911   9.763
38577W        W91473  20.498  15.851   1.578
38578W        W91474  19.166   3.374   3.274
38579W        W91475  25.777  29.038   0.167
38580W        W91476   8.388  27.017  10.304
38581W        W91477  21.818  18.439   7.780
38582W        W91478  27.229  17.847   0.632
38583W        W91479   4.265   0.960   3.317
38584W        W91480  23.265   2.445   7.461
38585W        W91481  26.602  18.973   8.338
38586W        W91482  23.051  32.628   9.668
38587W        W91483  32.919  30.008   2.442
38588W        W91484  20.894  19.802   3.360
38589W        W91485  25.422   1.122   9.802
38590W        W91486  17.765  10.270   4.066
38591W        W91487  30.231  10.592   1.899
38592W        W91488  16.832  26.896   7.710
38593W        W91489  17.474   5.577   1.415
38594W        W91490  12.633  23.313  10.120
38595W        W91491  12.828  10.281   0.318
38596W        W91492  29.233  35.752  10.042
38597W        W91493  35.055  26.097   8.398
38598W        W91494  16.369   0.558   0.846
38599W        W91495  35.951  33.646   0.846
38600W        W91496  28.977  12.839   2.284
38601W        W91497  17.706  23.138   2.331
38602W        W91498  17.592  10.680   2.707
38603W        W91499  21.625  13.536   1.098
38604W        W91500  20.134   6.486   2.782
38605W        W91501  24.779  28.894   1.567
38606W        W91502  32.341   8.689   0.499
38607W        W91503  30.126   2.936   9.083
38608W        W91504  27.858  18.544   8.951
38609W        W91505  26.035   9.392   8.951
38610W        W91506   3.805  33.989   1.530
38611W        W91507  32.304   8.191   0.664
38612W        W91508   0.261  21.091   7.927
38613W        W91509   1.173  20.039   2.346
38614W        W91510  16.154   9.469   3.507
38615W        W91511   0.950   1.974   1.812
38616W        W91512  14.921   6.171   8.541
38617W        W91513  31.227   7.133   0.417
38618W        W91514   5.427  23.694   8.728
38619W        W91515   2.307   9.395   2.577
38620W        W91516   8.957  18.654   8.671
38621W        W91517  30.162   8.796   9.952
38622W        W91518  21.017   8.657   2.302
38623W        W91519   2.872  33.862   8.848
38624W        W91520  27.086  10.074   3.528
38625W        W91521  25.913   3.445   9.601
38626W        W91522  12.508  26.452   9.524
38627W        W91523   0.375  12.365   1.734
38628W        W91524  16.788  30.168   2.398
38629W        W91525  15.832   1.786   9.584
38630W        W91526   0.839  15.676   1.570
38631W        W91527  34.591  22.710   9.071
38632W        W91528   6.135  20.680   2.770
38633W        W91529   0.134   7.284  10.241
38634W        W91530  29.573  20.000   8.158
38635W        W91531  27.172  12.822   0.709
38636W        W91532   4.817  34.830   2.353
38637W        W91533   8.019  29.022   8.007
38638W        W91534  17.597   6.243   3.799
38639W        W91535   1.680  23.883   7.713
38640W        W91536   2.032  17.010   9.853
38641W        W91537  12.296  33.655   2.806
38642W        W91538  30.470  27.399   8.263
38643W        W91539  31.061  20.669   9.561
38644W        W91540  11.555  22.082   8.697
38645W        W91541   3.439  19.493   8.779
38646W        W91542  15.018  21.152   0.227
38647W        W91543  32.815   9.426   6.560
38648W        W91544   0.966  21.587   2.947
38649W        W91545  19.040  33.527   0.711
38650W        W91546  30.806  12.991   0.199
38651W        W91547  12.698  35.567   0.418
38652W        W91548   7.871   2.495   1.424
38653W        W91549  11.003  21.603   1.295
38654W        W91550  19.071  21.743   0.615
38655W        W91551  14.035   8.667   3.613
38656W        W91552  22.445  22.927   2.798
38657W        W91553  28.274   2.586   3.203
38658W        W91554  32.422  21.664  10.328
38659W        W91555  34.762  21.869   2.392
38660W        W91556  12.782  10.839   1.707
38661W        W91557  21.231   6.820   1.463
38662W        W91558  33.009  27.240   9.294
38663W        W91559  34.409  11.365   8.549
38664W        W91560  13.168   3.487   8.422
38665W        W91561  33.230  31.100   8.586
38666W        W91562   1.312  25.448   9.243
38667W        W91563  14.278  18.500   8.101
38668W        W91564  21.736  14.317   9.859
38669W        W91565  25.642  33.501   2.146
38670W        W91566  11.147   5.226   3.322
38671W        W91567   3.093  24.300   2.833
38672W        W91568   8.113  31.773   1.999
38673W        W91569   6.630  16.536   0.511
38674W        W91570  25.426  32.444   8.721
38675W        W91571  31.551  26.020   7.805
38676W        W91572  21.046  30.765   8.910
38677W        W91573  33.895   7.961   8.458
38678W        W91574   6.431   3.676  10.195
38679W        W91575   5.510  22.507   2.717
38680W        W91576  23.819  31.338   7.857
38681W        W91577  34.956  35.526   2.819
38682W        W91578  26.519   5.363   2.397
38683W        W91579   8.683  10.922   1.646
38684W        W91580  24.989  19.509   1.992
38685W        W91581  20.569   9.506   9.187
38686W        W91582  35.685   9.271   1.589
38687W        W91583  26.633   0.676   0.873
38688W        W91584  27.357   1.089   8.336
38689W        W91585  25.797  34.853   9.841
38690W        W91586  25.786  24.308   2.934
38691W        W91587   7.465  16.421   0.986
38692W        W91588   2.523   8.261   0.986
38693W        W91589  34.862  24.998   9.744
38694W        W91590  25.909  32.301   8.601
38695W        W91591   7.268  17.809   8.528
38696W        W91592  27.277  17.815   1.583
38697W        W91593   3.246  12.357   8.386
38698W        W91594  19.261   9.121   2.162
38699W        W91595  17.092  21.980   0.085
38700W        W91596  28.535  20.287   2.506
38701W        W91597  14.252   0.315   2.186
38702W        W91598   2.723  35.225   9.860
38703W        W91599  17.722  12.041   3.962
38704W        W91600   3.136  11.195   1.547
38705W        W91601  33.275  22.903   1.628
38706W        W91602  21.944  15.697   0.804
38707W        W91603  23.953   9.413   8.747
38708W        W91604   0.448  17.254   1.488
38709W        W91605  11.021  13.250   0.881
38710W        W91606  20.516  16.519   0.878
38711W        W91607  28.846  24.435   9.961
38712W        W91608  21.844   9.625   2.617
38713W        W91609   1.927  33.752   3.047
38714W        W91610  18.612   4.837   1.770
38715W        W91611  15.894   4.307   7.036
38716W        W91612   8.969  19.629   9.732
38717W        W91613  10.577  10.434   0.657
38718W        W91614  14.092  35.187   9.171
38719W        W91615  22.213   1.021   2.611
38720W        W91616   5.709  16.814   0.646
38721W        W91617  27.987  32.894   9.413
38722W        W91618   4.697  15.729   9.500
38723W        W91619  27.814  28.549   8.842
38724W        W91620  35.059  22.353   3.326
38725W        W91621  32.950   4.089   1.018
38726W        W91622  19.342  14.390   1.937
38727W        W91623  16.213  22.839  10.320
38728W        W91624  24.118   4.496   2.268
38729W        W91625  31.613   9.351   8.337
38730W        W91626   5.832   8.882   7.180
38731W        W91627   9.334  32.408   2.816
38732W        W91628  17.508  27.789   1.177
38733W        W91629  25.846  20.621   8.905
38734W        W91630   1.000  34.654   7.931
38735W        W91631   6.352  29.565   0.782
38736W        W91632  21.608  32.785   0.786
38737W        W91633   4.661  14.885   2.737
38738W        W91634   8.572   6.991   8.294
38739W        W91635  14.657   1.979   2.459
38740W        W91636   4.483  28.574   0.883
38741W        W91637  23.037  12.216   0.209
38742W        W91638  14.196  14.260   9.110
38743W        W91639  15.400  21.720   0.041
38744W        W91640   1.592   3.607   1.660
38745W        W91641  33.269  26.158   8.521
38746W        W91642  23.342  33.620   8.128
38747W        W91643  16.779  22.686   9.599
38748W        W91644  10.541  28.651   8.937
38749W        W91645  11.386  28.341   1.396
38750W        W91646  31.723  16.875   8.796
38751W        W91647   4.749  22.264   2.382
38752W        W91648   8.534   0.194   3.137
38753W        W91649   6.905  25.968  10.007
38754W        W91650  10.167  31.068   9.187
38755W        W91651   4.939  35.352   1.331
38756W        W91652  23.144  33.895   2.457
38757W        W91653  31.137  25.500   1.712
38758W        W91654  30.208   1.198   8.605
38759W        W91655  10.494  30.136   8.609
38760W        W91656  35.028   0.748   7.746
38761W        W91657  12.100  25.942   9.860
38762W        W91658  19.314  27.207   9.511
38763W        W91659   5.150  33.727   1.521
38764W        W91660  12.140   6.528   9.152
38765W        W91661  25.224  15.366   9.310
38766W        W91662  14.307  19.394   8.269
38767W        W91663  27.619  20.985   8.289
38768W        W91664   1.321   5.989   9.819
38769W        W91665  31.252  19.767   2.620
38770W        W91666  24.644   0.717   8.193
38771W        W91667  30.224  16.763   0.020
38772W        W91668  34.643  32.140   1.046
38773W        W91669  34.266  16.673   3.210
38774W        W91670  30.039  28.655   8.495
38775W        W91671  11.590  27.396   0.318
38776W        W91672  11.530  34.357   1.636
38777W        W91673   0.741  25.492   2.916
38778W        W91674  22.049   2.589   2.008
38779W        W91675  10.526  29.289   1.989
38780W        W91676   9.819   6.229   0.092
38781W        W91677  19.825  34.539   8.404
38782W        W91678   4.328  17.027   9.313
38783W        W91679  24.092  25.033   0.666
38784W        W91680  31.787  15.493   2.550
38785W        W91681  11.907   9.849  10.039
38786W        W91682  23.651  13.404   0.789
38787W        W91683  18.855  27.129   9.088
38788W        W91684  23.625  28.080   9.392
38789W        W91685   4.803   1.887   9.987
38790W        W91686  19.477  14.008   9.378
38791W        W91687  30.438  14.839   0.453
38792W        W91688  26.639  33.958   8.955
38793W        W91689   6.843  25.952   7.413
38794W        W91690   8.802   3.809   0.332
38795W        W91691   9.374  27.647   7.694
38796W        W91692   6.379   4.831   8.973
38797W        W91693   7.630   6.893   8.959
38798W        W91694   6.974  14.578   1.105
38799W        W91695  16.933   4.775   8.330
38800W        W91696   5.995  34.656   1.718
38801W        W91697  21.280  34.046   7.434
38802W        W91698  35.949   6.248   7.961
38803W        W91699  21.995  31.242   9.114
38804W        W91700   1.745  26.859   8.403
38805W        W91701   2.227  15.779   9.865
38806W        W91702  12.724  12.316   9.247
38807W        W91703  18.043   1.294   8.875
38808W        W91704   9.816  15.400   1.162
38809W        W91705   4.669  34.816   0.540
38810W        W91706   9.389  27.153   1.080
38811W        W91707  11.568  14.766   8.977
38812W        W91708   2.315   1.425   6.942
38813W        W91709   6.173  17.617   1.069
38814W        W91710  23.570   5.782   0.755
38815W        W91711  12.437  29.054   9.915
38816W        W91712   9.773  16.820   2.836
38817W        W91713   6.993  32.527   1.734
38818W        W91714  29.690  23.319   1.787
38819W        W91715  21.348  10.287   7.726
38820W        W91716  31.183  31.592   1.838
38821W        W91717  35.674   5.675   1.800
38822W        W91718  32.434  30.359   8.694
38823W        W91719  13.739  12.354   7.964
38824W        W91720  27.060  27.204   8.159
38825W        W91721  15.855  32.096   1.060
38826W        W91722  34.567  13.758   9.136
38827W        W91723  35.224   7.528  10.112
38828W        W91724   2.287   9.705   1.744
38829W        W91725  11.638  30.973   8.407
38830W        W91726  27.491  18.129   8.195
38831W        W91727  28.669  33.977   9.732
38832W        W91728  27.379   9.987   2.198
38833W        W91729  11.125  24.532  10.057
38834W        W91730  29.526  21.753   9.577
38835W        W91731  14.541   7.016   1.238
38836W        W91732  27.578   8.064   1.590
38837W        W91733   1.725   8.093   8.579
38838W        W91734   3.181  13.330   3.361
38839W        W91735  12.822   5.647   1.555
38840W        W91736  34.807  32.383   1.420
38841W        W91737  23.363   6.250   0.333
38842W        W91738  35.742  11.014   0.500
38843W        W91739  14.864   6.350   0.724
38844W        W91740  33.037  33.250   0.730
38845W        W91741   2.899  20.335   9.365
38846W        W91742   2.094  21.371   1.051
38847W        W91743   0.869  34.699   2.161
38848W        W91744  33.543  16.511   0.572
38849W        W91745  21.499  24.069   7.882
38850W        W91746  25.898   4.666   0.451
38851W        W91747  27.988  18.628   8.488
38852W        W91748   1.840   0.459   2.163
38853W        W91749   2.424  22.103   1.844
38854W        W91750   0.292  16.797   8.550
38855W        W91751  21.671  20.036   1.223
38856W        W91752   8.073  33.906   9.714
38857W        W91753  31.983  26.299   1.360
38858W        W91754   0.456  20.957   0.961
38859W        W91755   2.696   7.266   0.796
38860W        W91756   9.070  35.622   8.162
38861W        W91757   9.595  10.063   7.773
38862W        W91758  25.656  25.812   0.393
38863W        W91759   8.130  26.988   8.911
38864W        W91760  23.336  24.031   8.182
38865W        W91761   6.909   9.878   3.532
38866W        W91762  23.355  22.178   8.465
38867W        W91763  33.427   4.881   0.981
38868W        W91764   3.992  10.789   0.787
38869W        W91765  32.153  19.970   8.219
38870W        W91766   9.991   6.830   8.605
38871W        W91767   1.138  10.653   8.601
38872W        W91768  22.378  12.544   8.131
38873W        W91769  25.485   0.713   2.872
38874W        W91770  18.925   6.806   8.631
38875W        W91771  10.642   9.620   8.228
38876W        W91772   8.709  30.940   0.080
38877W        W91773  30.034   8.076   0.558
38878W        W91774  20.619  22.628   7.693
38879W        W91775   1.664  20.653   9.858
38880W        W91776   7.848  33.484   3.126
38881W        W91777   3.762  14.931   0.937
38882W        W91778  12.300  15.992   9.713
38883W        W91779  23.646  33.402   0.910
38884W        W91780  26.965   8.139   3.421
38885W        W91781  18.053   0.516   0.518
38886W        W91782  15.441   5.721   2.039
38887W        W91783  11.090  13.805   9.325
38888W        W91784  33.854  34.223   1.976
38889W        W91785  26.308  16.805   1.925
38890W        W91786   3.128  12.501   0.080
38891W        W91787  12.352  34.849   0.913
38892W        W91788  30.569   1.286   8.171
38893W        W91789   3.619  10.666   1.101
38894W        W91790  11.012  19.620   6.776
38895W        W91791  22.684  15.444   1.828
38896W        W91792  33.830  22.515   2.296
38897W        W91793  17.014   5.850   2.450
38898W        W91794  16.175  27.969   1.784
38899W        W91795  22.113   9.458   9.226
38900W        W91796   4.872  17.478   1.509
38901W        W91797   6.115  15.421   1.851
38902W        W91798  30.871  26.602  10.192
38903W        W91799  19.023  33.436   8.850
38904W        W91800   4.361  34.866   9.700
38905W        W91801  35.859  12.927  10.094
38906W        W91802  26.021  20.328   9.813
38907W        W91803   2.282  26.872   9.303
38908W        W91804  14.174  27.350   8.715
38909W        W91805   1.425  33.240   0.301
38910W        W91806  10.163  25.793   2.391
38911W        W91807  26.959  28.849   1.737
38912W        W91808  21.174  11.054   0.429
38913W        W91809   5.777  16.560   2.011
38914W        W91810   4.507   9.046   8.361
38915W        W91811   0.439  15.639   9.915
38916W        W91812  30.878   7.783   7.579
38917W        W91813   6.826  20.575   1.026
38918W        W91814  13.276   4.405   9.343
38919W        W91815   4.133  28.614   1.914
38920W        W91816  29.333  33.776   2.825
38921W        W91817  18.048  10.116   7.722
38922W        W91818   3.985   7.543   3.429
38923W        W91819   0.367   4.609   1.059
38924W        W91820  30.357  26.668  10.278
38925W        W91821  24.620  11.929   2.430
38926W        W91822  19.341   3.288   8.849
38927W        W91823  23.125   9.564   9.707
38928W        W91824   5.449  30.293   8.469
38929W        W91825  18.544  33.354   9.164
38930W        W91826   5.375  11.228   0.617
38931W        W91827  11.518  11.529   8.648
38932W        W91828  24.932  28.154   9.688
38933W        W91829  16.705  27.905   1.893
38934W        W91830  19.721  29.896   3.284
38935W        W91831  34.959   0.075   8.490
38936W        W91832  21.621  17.362   8.610
38937W        W91833  33.709  15.977   9.418
38938W        W91834  25.291   5.867  10.329
38939W        W91835  14.225  23.990   7.880
38940W        W91836  29.095  14.953   0.425
38941W        W91837  33.571  18.899   2.862
38942W        W91838  24.928  19.009   9.476
38943W        W91839  32.298  29.527   2.302
38944W        W91840  29.685  11.128   9.197
38945W        W91841  29.833   3.982   1.701
38946W        W91842  19.656   9.776  10.127
38947W        W91843  28.579   2.731   2.192
38948W        W91844   5.073   8.523   2.339
38949W        W91845  19.844  20.520   8.742
38950W        W91846  27.606   4.522   7.529
38951W        W91847  14.553  32.948   8.901
38952W        W91848   1.637  11.111   1.806
38953W        W91849   9.045  34.631   8.224
38954W        W91850  29.642  11.597   7.440
38955W        W91851   7.619   9.987   7.887
38956W        W91852  15.338   1.601   1.369
38957W        W91853  21.034   7.891   7.726
38958W        W91854  32.275   0.393   0.413
38959W        W91855  25.626  25.990   8.628
38960W        W91856  16.323   8.877   2.743
38961W        W91857   7.959  27.308   0.393
38962W        W91858   4.928  25.237   2.079
38963W        W91859  23.557  25.105   7.319
38964W        W91860   8.619  12.616   9.542
38965W        W91861  23.577  35.614   0.714
38966W        W91862  29.669   3.298   9.394
38967W        W91863  14.828   2.962   2.511
38968W        W91864  16.469   8.055   8.800
38969W        W91865  24.183  28.413   1.093
38970W        W91866   0.965  33.196   9.418
38971W        W91867  15.636  13.762   8.416
38972W        W91868  29.841  28.438   0.973
38973W        W91869   4.371  16.378   1.066
38974W        W91870  16.129   8.840   2.260
38975W        W91871  19.592  16.721   2.093
38976W        W91872  18.794  33.699   9.386
38977W        W91873   9.732   5.392   3.549
38978W        W91874  12.428  14.965   1.785
38979W        W91875  24.187  33.309   3.682
38980W        W91876  28.621   3.876   0.641
38981W        W91877   0.944   1.188   2.997
38982W        W91878   8.148  24.803   9.230
38983W        W91879  17.207   5.004   0.313
38984W        W91880  21.648  33.188   8.791
38985W        W91881   5.642  20.696   1.322
38986W        W91882  30.856   9.599   1.105
38987W        W91883  23.274  14.299   0.845
38988W        W91884  24.463   0.030   8.682
38989W        W91885  31.905  22.184   9.938
38990W        W91886  14.824  13.385   8.034
38991W        W91887   8.999  23.762   8.837
38992W        W91888  27.732  34.757   0.518
38993W        W91889   2.366  30.122   0.179
38994W        W91890  18.800  23.241   1.412
38995W        W91891   5.438  27.835   2.641
38996W        W91892   6.771  23.367   9.974
38997W        W91893  19.392  14.443   8.916
38998W        W91894  11.992  32.067   2.316
38999W        W91895  15.530  31.538   1.838
39000W        W91896  25.627  30.188   9.019
39001W        W91897  23.532  13.931   8.834
39002W        W91898  28.922  24.001   3.217
39003W        W91899  17.496  15.627   9.543
39004W        W91900   4.861  25.632   7.309
39005W        W91901  18.090  19.071   1.572
39006W        W91902  29.882  30.410   1.432
39007W        W91903  22.960  19.136   3.330
39008W        W91904  28.396   7.939   8.263
39009W        W91905  27.642  23.310   9.536
39010W        W91906  23.087  14.150   8.653
39011W        W91907  12.764  25.669   0.046
39012W        W91908  14.681  32.674   3.191
39013W        W91909   4.140  22.529   2.861
39014W        W91910  35.387  10.348   0.190
39015W        W91911  34.891  34.756   1.592
39016W        W91912  30.446   5.718   9.217
39017W        W91913   5.008  33.062   9.794
39018W        W91914  29.938  13.603   0.011
39019W        W91915  34.056   6.086   7.848
39020W        W91916   7.385   9.680   2.453
39021W        W91917  26.825   9.356   0.083
39022W        W91918  18.651  25.972   7.161
39023W        W91919  15.416  27.101   1.704
39024W        W91920  29.643  17.317   1.157
39025W        W91921  11.485   5.062   7.697
39026W        W91922   8.964   0.882   8.289
39027W        W91923  34.321  31.706   2.991
39028W        W91924   9.297   6.438   1.266
39029W        W91925  23.716   4.789   2.411
39030W        W91926  22.370  25.543  10.279
39031W        W91927  20.915   9.535   0.301
39032W        W91928  19.628   6.056   8.123
39033W        W91929  25.414   6.778   2.746
39034W        W91930  16.168  13.871   8.402
39035W        W91931  22.584  10.128   9.585
39036W        W91932  27.485  30.204   0.866
39037W        W91933   8.023   9.992   3.331
39038W        W91934  20.073   1.429   0.032
39039W        W91935   0.280  25.345   7.816
39040W        W91936  25.509   4.370   1.280
39041W        W91937  12.531  34.580   2.703
39042W        W91938  24.497   6.091   9.767
39043W        W91939  33.546  26.776   8.034
39044W        W91940   2.640   6.971   1.620
39045W        W91941   9.558  29.733   7.654
39046W        W91942  23.557   8.467   8.645
39047W        W91943  11.819  19.048   8.580
39048W        W91944  20.086  23.607   8.234
39049W        W91945  15.232  35.197   0.075
39050W        W91946   5.215   3.877   1.385
39051W        W91947  24.563  20.829   8.511
39052W        W91948  11.267   8.942   1.307
39053W        W91949  10.334  19.449   2.719
39054W        W91950  25.237  26.901   2.732
39055W        W91951  15.734   6.758   0.486
39056W        W91952  18.961  21.907   9.966
39057W        W91953  16.408   6.815   9.741
39058W        W91954  29.439  34.264   0.038
39059W        W91955  25.252  24.264   0.804
39060W        W91956  15.173   2.117   2.884
39061W        W91957   4.794   0.100   8.432
39062W        W91958  28.859  21.665   1.079
39063W        W91959  16.987  35.322   1.008
39064W        W91960   8.881   2.457  10.160
39065W        W91961  28.787  32.168   0.046
39066W        W91962  28.973  19.366   8.142
39067W        W91963  29.526   1.363   0.235
39068W        W91964  32.857  32.732   0.858
39069W        W91965  29.233   5.149   0.087
39070W        W91966  32.617  24.791   1.599
39071W        W91967  19.168  14.876   9.799
39072W        W91968   2.352  33.500   7.777
39073W        W91969  15.060  27.213   8.451
39074W        W91970   3.367  10.131   2.709
39075W        W91971  28.398  23.244  10.288
39076W        W91972   3.378   0.431   1.642
39077W        W91973  15.333  30.072   0.608
39078W        W91974  14.515  13.541   7.598
39079W        W91975  30.326  13.214   2.555
39080W        W91976  14.872   7.633  10.316
39081W        W91977  18.269  20.140   2.150
39082W        W91978  28.217   9.836   0.298
39083W        W91979  23.018  20.328   8.812
39084W        W91980  18.480  13.071   0.963
39085W        W91981  25.333   5.373   1.623
39086W        W91982  31.811  25.055   3.846
39087W        W91983  22.482  31.527   2.050
39088W        W91984  16.901  11.212   0.220
39089W        W91985  25.357  28.420   2.501
39090W        W91986  22.818  31.526   0.133
39091W        W91987  26.731  32.144   1.129
39092W        W91988  15.748  31.780   9.633
39093W        W91989   9.950  18.586   2.574
39094W        W91990  34.105  33.385   2.394
39095W        W91991  10.625  25.913   9.743
39096W        W91992   0.610  26.234   9.148
39097W        W91993   1.200  28.403   8.174
39098W        W91994  25.969   9.113   1.630
39099W        W91995  20.286  35.916   3.855
39100W        W91996   6.671   2.538   8.077
39101W        W91997  12.469   0.554   8.809
39102W        W91998  29.672  15.522   2.918
39103W        W91999   8.526  35.421   0.759
39104W        W92000   8.844  33.734   7.959
39105W        W92001  29.186  18.359   9.698
39106W        W92002  30.674  22.010   1.599
39107W        W92003  17.447  35.749   8.305
39108W        W92004  16.664  23.661  10.172
39109W        W92005  23.764   1.187   7.194
39110W        W92006   3.722  19.946   8.830
39111W        W92007  16.938   8.093   2.343
39112W        W92008  24.516  21.006   2.526
39113W        W92009  20.382   4.251   0.875
39114W        W92010  26.011  22.898   9.937
39115W        W92011   5.563   0.844   0.218
39116W        W92012  12.064  11.361   2.997
39117W        W92013  16.429   5.926   9.023
39118W        W92014   2.378   6.772   7.886
39119W        W92015   0.510  31.484   9.696
39120W        W92016   7.975   9.071   8.375
39121W        W92017  27.452  19.132   0.526
39122W        W92018   3.462  27.526   2.694
39123W        W92019  13.469  13.613   9.118
39124W        W92020  16.235   5.050  10.260
39125W        W92021  10.831   9.231   7.820
39126W        W92022   4.180   9.802   3.685
39127W        W92023   2.890  10.744   1.579
39128W        W92024  20.425   5.497   9.131
39129W        W92025  33.523  33.582   0.176
39130W        W92026  13.159  14.518   3.651
39131W        W92027  32.038  35.562   2.655
39132W        W92028  12.106  23.959   8.118
39133W        W92029   7.432   7.328   9.176
39134W        W92030  26.424  31.324   2.776
39135W        W92031  32.699   0.322   7.879
39136W        W92032   4.905  35.540   8.535
39137W        W92033  33.662  33.467   9.909
39138W        W92034  26.035  10.129   3.034
39139W        W92035  24.917  27.888   0.588
39140W        W92036   3.235  11.229   0.344
39141W        W92037  14.927  13.890   0.645
39142W        W92038  14.436  21.920   8.546
39143W        W92039  20.848  30.174   1.888
39144W        W92040   6.832  27.262  10.209
39145W        W92041  15.037  19.237   8.875
39146W        W92042   3.748  22.122   3.240
39147W        W92043   3.821   1.516   1.267
39148W        W92044  32.778  34.747   0.185
39149W        W92045  34.341  30.546   8.038
39150W        W92046  23.583  18.487   9.784
39151W        W92047  14.263   6.885   0.840
39152W        W92048  26.000  12.955   8.292
39153W        W92049  23.968  16.809   8.927
39154W        W92050  21.564  27.259   9.399
39155W        W92051  13.869  22.604   8.721
39156W        W92052  12.088  19.383   1.515
39157W        W92053  31.040  14.513   2.770
39158W        W92054   8.247   5.500   7.683
39159W        W92055  13.199   2.551   0.591
39160W        W92056  23.706  25.725   0.608
39161W        W92057  26.153  29.759   9.464
39162W        W92058  22.921  30.405   9.504
39163W        W92059   8.825  21.875   7.510
39164W        W92060  26.595  35.261   2.062
39165W        W92061  32.854  14.554   0.917
39166W        W92062  12.553  28.974   0.871
39167W        W92063  22.791   5.655   2.565
39168W        W92064  31.089   2.633   1.027
39169W        W92065   2.945   4.529   1.771
39170W        W92066  22.917   4.059   7.220
39171W        W92067   5.490  22.128   0.331
39172W        W92068   4.410   1.589   2.830
39173W        W92069   7.125  17.861   0.760
39174W        W92070  33.606  22.957   7.392
39175W        W92071   7.434  15.330   8.705
39176W        W92072   9.433   5.408   3.141
39177W        W92073  12.115  13.172   0.661
39178W        W92074  18.517  30.588   1.590
39179W        W92075  32.470   6.953   2.871
39180W        W92076   5.574  12.136   3.447
39181W        W92077  21.608   1.491   0.916
39182W        W92078   6.599  11.811   0.443
39183W        W92079  16.962  34.693   8.822
39184W        W92080  34.573  34.262   2.831
39185W        W92081  29.169   2.181   2.654
39186W        W92082   4.449   8.875   2.264
39187W        W92083   6.520   4.624   0.918
39188W        W92084   8.952  18.410   2.396
39189W        W92085  13.200  31.426   7.392
39190W        W92086  27.524  22.719   2.084
39191W        W92087  15.978  27.018   1.707
39192W        W92088  33.644  22.584   1.771
39193W        W92089   9.375  17.975   0.535
39194W        W92090   7.894  27.461   1.339
39195W        W92091   7.868  24.834   0.317
39196W        W92092  21.299  20.850   9.563
39197W        W92093  18.277   2.300   1.897
39198W        W92094  31.523   7.708   2.266
39199W        W92095  13.587  18.936   3.466
39200W        W92096   4.078  20.024   0.481
39201W        W92097  10.716   1.437   2.977
39202W        W92098   4.865   7.751   7.329
39203W        W92099  34.869  12.609   2.895
39204W        W92100   6.804   1.553   2.426
39205W        W92101  21.209  14.651   1.801
39206W        W92102   4.040  29.179   0.664
39207W        W92103  30.882  33.918   0.964
39208W        W92104   3.119   8.313   1.879
39209W        W92105  20.500  16.704   0.196
39210W        W92106  16.532  34.761  10.057
39211W        W92107   1.909  10.102  10.058
39212W        W92108   4.460   9.933   3.193
39213W        W92109  14.732   0.889   7.575
39214W        W92110  34.530  22.153   2.946
39215W        W92111  35.136  27.422   8.548
39216W        W92112  30.547  16.075   0.686
39217W        W92113  17.342  34.956   1.226
39218W        W92114  10.747  23.098   9.888
39219W        W92115  35.075  32.956   9.676
39220W        W92116  33.604  28.090   0.664
39221W        W92117  33.690  28.948   7.832
39222W        W92118  33.860  33.766   2.285
39223W        W92119   9.379  34.777  10.151
39224W        W92120  17.171   8.200   3.003
39225W        W92121  15.875  21.335   3.166
39226W        W92122  17.597  27.568   2.299
39227W        W92123  26.678  17.061   1.610
39228W        W92124   8.626  33.461   9.212
39229W        W92125  30.279  16.314   2.730
39230W        W92126  35.306  23.850   8.727
39231W        W92127  31.050   1.429   1.021
39232W        W92128   6.479  32.976   0.595
39233W        W92129   9.350  11.013  10.023
39234W        W92130  18.423   4.276   0.017
39235W        W92131  16.674   1.536   1.909
39236W        W92132   1.445   6.956   3.438
39237W        W92133  28.366   7.998   2.002
39238W        W92134  35.658   1.452   9.107
39239W        W92135  10.533   1.626   9.884
39240W        W92136  28.459   5.704   8.077
39241W        W92137  13.625  15.386   0.685
39242W        W92138  33.394  17.810   3.141
39243W        W92139  27.423  29.831  10.152
39244W        W92140  23.310   8.845   2.757
39245W        W92141   7.690  33.275   8.221
39246W        W92142  35.536  32.499   2.573
39247W        W92143  23.162  22.374   8.964
39248W        W92144   1.380  24.301   3.110
39249W        W92145  12.837  27.149   7.828
39250W        W92146  32.591   4.123   8.014
39251W        W92147  10.351  15.172   3.156
39252W        W92148  15.099   3.491   1.090
39253W        W92149  28.805  16.030   7.257
39254W        W92150   8.867   5.148   2.502
39255W        W92151  28.259  18.748   7.577
39256W        W92152  26.586  29.305   0.327
39257W        W92153   7.737   0.986   8.717
39258W        W92154  24.968  28.057  10.161
39259W        W92155   4.518  28.086   9.493
39260W        W92156  31.334  31.741   2.707
39261W        W92157  23.057  31.386   1.272
39262W        W92158   5.405  17.632   7.489
39263W        W92159  21.351   0.954   1.306
39264W        W92160  27.972  20.817   0.745
39265W        W92161   2.614  14.244   9.074
39266W        W92162  11.659  19.275   0.921
39267W        W92163  14.506  29.334   9.962
39268W        W92164   8.262   7.909   1.247
39269W        W92165  23.793  15.083   0.889
39270W        W92166   6.724  24.504   0.291
39271W        W92167   6.180  25.165   7.358
39272W        W92168  12.244  21.082   2.236
39273W        W92169  21.619  13.275   3.577
39274W        W92170  30.320   6.885   7.454
39275W        W92171   5.234  14.059   2.210
39276W        W92172  16.578  21.413   0.250
39277W        W92173  14.864  21.647   0.391
39278W        W92174  12.921   6.269   9.976
39279W        W92175  25.983   1.035   8.073
39280W        W92176   9.723  23.201   7.769
39281W        W92177  22.363  33.456   7.999
39282W        W92178  25.778  26.258   9.943
39283W        W92179  26.342  10.519   2.898
39284W        W92180   1.556  32.669   9.879
39285W        W92181   3.255  17.624  10.297
39286W        W92182  15.346  14.620   2.609
39287W        W92183  28.284  13.242   7.830
39288W        W92184  11.458  15.996   8.704
39289W        W92185  34.651  20.042   2.374
39290W        W92186   5.534   4.577   1.123
39291W        W92187  34.231  22.199   9.645
39292W        W92188   3.863  15.015   9.419
39293W        W92189  22.147  23.478   8.347
39294W        W92190  19.571  11.593   1.072
39295W        W92191  33.584  22.514   2.803
39296W        W92192   0.606  35.104   1.889
39297W        W92193  35.288   7.659   1.608
39298W        W92194   9.653   6.774   2.401
39299W        W92195  19.478  25.438   1.711
39300W        W92196  33.896  19.311  10.163
39301W        W92197  24.107  27.253   8.954
39302W        W92198   4.414   7.294   0.677
39303W        W92199   4.786  25.102   0.470
39304W        W92200   5.410  11.419   0.160
39305W        W92201   2.577  22.494   8.906
39306W        W92202  30.068  31.269   0.078
39307W        W92203   9.320  16.914   7.677
39308W        W92204  33.064  16.607   8.725
39309W        W92205  32.931  28.910   8.369
39310W        W92206   5.093  28.705   0.048
39311W        W92207   2.450  26.408   9.696
39312W        W92208  13.846  21.780   2.679
39313W        W92209  35.850   0.412  10.160
39314W        W92210  20.947  19.857   8.432
39315W        W92211  15.632  25.460   0.119
39316W        W92212  17.611   9.088   9.122
39317W        W92213  23.260  17.174   4.191
39318W        W92214  22.883  24.083   8.624
39319W        W92215   1.922  15.823   9.426
39320W        W92216  11.881  28.169   0.835
39321W        W92217  35.739  13.835   1.864
39322W        W92218   0.325  11.851   0.128
39323W        W92219  16.790  14.522   8.513
39324W        W92220   7.390   6.814   9.499
39325W        W92221  14.602  18.244   0.504
39326W        W92222  33.606  21.018   8.432
39327W        W92223  15.497  24.655   9.468
39328W        W92224  13.036  23.689   8.461
39329W        W92225   2.702  19.549   2.885
39330W        W92226  27.266  23.120   1.960
39331W        W92227  33.912  34.738   9.533
39332W        W92228  13.186  14.461   7.677
39333W        W92229   0.437  29.009   2.876
39334W        W92230  35.214  34.213   2.005
39335W        W92231  25.013  34.950   1.643
39336W        W92232  19.130  12.147   1.919
39337W        W92233   9.639   0.809   2.100
39338W        W92234  32.619  15.320   9.232
39339W        W92235   4.111   2.012   2.016
39340W        W92236  12.280  13.803   1.343
39341W        W92237  19.506  10.774   2.151
39342W        W92238  23.115   3.797   9.017
39343W        W92239   5.606  20.312   8.498
39344W        W92240  10.032   4.852   0.172
39345W        W92241  28.694  24.184   2.812
39346W        W92242  11.906   3.953   9.839
39347W        W92243  32.925  32.493   9.015
39348W        W92244  12.668  24.394   1.623
39349W        W92245  24.829  15.195   2.345
39350W        W92246   4.512  19.936   1.305
39351W        W92247   2.637  14.075   9.520
39352W        W92248   6.457   3.467   8.497
39353W        W92249  26.953  15.070   3.451
39354W        W92250   6.625  31.625   3.379
39355W        W92251  33.051  22.634   0.461
39356W        W92252  20.440  34.978  10.153
39357W        W92253  25.761  33.763   8.544
39358W        W92254  26.550   1.451   2.038
39359W        W92255  26.984  21.962   0.686
39360W        W92256  10.624  21.968   0.363
39361W        W92257  30.232   1.273   2.838
39362W        W92258  15.139  26.890   2.062
39363W        W92259  23.712  10.111   2.582
39364W        W92260  16.978   1.171   2.878
39365W        W92261  30.249   8.059   0.013
39366W        W92262  14.032  21.003   1.777
39367W        W92263  26.241  26.959  10.002
39368W        W92264  26.020   7.657   9.487
39369W        W92265  10.315  25.198   2.331
39370W        W92266  33.256  17.611   7.964
39371W        W92267  10.348  17.209   1.589
39372W        W92268  29.861   6.153   2.034
39373W        W92269  24.192  21.509   0.035
39374W        W92270  15.280  29.111   7.230
39375W        W92271   0.247  25.820   8.547
39376W        W92272  18.574   5.392   7.761
39377W        W92273  26.249  28.307   3.515
39378W        W92274  11.907  16.265   8.717
39379W        W92275  15.665  18.761   1.702
39380W        W92276   7.993  21.706   9.650
39381W        W92277  12.084  25.473   1.974
39382W        W92278  17.042  18.505   3.249
39383W        W92279  26.235   1.227   9.223
39384W        W92280  24.603  35.876   1.769
39385W        W92281  35.170   0.471   2.215
39386W        W92282   8.845   8.574   7.911
39387W        W92283  29.081  19.541  10.126
39388W        W92284  16.556   0.941   9.251
39389W        W92285   8.576  12.224   8.852
39390W        W92286  13.966  33.046   8.179
39391W        W92287  15.650   5.819   3.662
39392W        W92288   0.017  15.752   9.622
39393W        W92289  14.583  11.265   2.339
39394W        W92290  13.332  31.104   0.508
39395W        W92291  20.100  19.903   2.447
39396W        W92292  20.197  35.904   9.234
39397W        W92293  19.544  27.358   0.343
39398W        W92294  20.364   1.822   0.388
39399W        W92295  28.637  12.172   1.449
39400W        W92296  34.598  33.057   8.862
39401W        W92297  16.840  10.438   1.444
39402W        W92298  31.113  18.701   7.979
39403W        W92299   7.299  32.562   7.969
39404W        W92300   8.851  23.644   6.872
39405W        W92301  17.803  31.336   1.749
39406W        W92302  22.636   6.194   9.658
39407W        W92303   5.826  13.964   9.433
39408W        W92304  26.276  34.713   9.562
39409W        W92305  19.265  10.424   0.438
39410W        W92306   2.213  18.880   1.720
39411W        W92307   7.506   4.271   9.218
39412W        W92308  14.960  32.248   0.640
39413W        W92309  10.954  35.557   9.438
39414W        W92310   7.223  17.755   9.903
39415W        W92311  17.876   3.916   9.187
39416W        W92312  23.716  19.722   8.782
39417W        W92313  32.395  22.063   2.794
39418W        W92314  21.283   8.520   7.885
39419W        W92315  13.479   3.953   8.536
39420W        W92316  11.389  12.115   3.069
39421W        W92317  28.531  34.894   7.530
39422W        W92318   8.728  20.304   1.545
39423W        W92319  26.851   5.446   2.833
39424W        W92320  23.873  16.536   9.368
39425W        W92321  31.189   7.340   0.964
39426W        W92322  28.204  16.450   0.486
39427W        W92323  23.397   9.234   2.424
39428W        W92324   9.857   5.585   8.023
39429W        W92325   4.368  25.617   2.471
39430W        W92326  33.095  13.470   2.157
39431W        W92327  28.702   6.701   1.241
39432W        W92328  26.397   2.815   1.468
39433W        W92329  24.106  12.485   7.668
39434W        W92330   2.936  26.845   3.302
39435W        W92331  35.545  27.702   1.867
39436W        W92332   8.765  30.593   1.865
39437W        W92333   1.094   5.035   7.690
39438W        W92334   1.218  33.844  10.015
39439W        W92335   2.736  32.674   1.468
39440W        W92336  24.513  24.710   3.475
39441W        W92337  18.505   7.626   9.316
39442W        W92338  23.997  22.726   9.437
39443W        W92339  16.324  22.200   3.079
39444W        W92340  33.393  16.726   1.705
39445W        W92341  28.295   9.460   2.487
39446W        W92342  23.167  12.178   1.063
39447W        W92343  15.899  15.096   0.405
39448W        W92344  13.800  31.821   8.611
39449W        W92345   7.224  23.244   9.980
39450W        W92346  10.877  16.520   8.930
39451W        W92347  33.376  31.191   8.035
39452W        W92348  33.443   5.573   2.732
39453W        W92349   4.977   4.365   2.945
39454W        W92350  33.805  21.225   8.987
39455W        W92351  35.752  24.311   0.361
39456W        W92352  20.200   6.020   8.739
39457W        W92353  12.923  30.701   2.273
39458W        W92354   5.827  20.480   3.628
39459W        W92355   1.576   0.240  10.063
39460W        W92356   4.475  26.885   1.695
39461W        W92357  25.126  24.060   8.263
39462W        W92358   5.665   0.124   2.902
39463W        W92359  12.988   5.520   3.348
39464W        W92360  34.817  22.808   1.461
39465W        W92361  14.742  23.209   8.316
39466W        W92362  25.281  33.737   9.808
39467W        W92363  24.011  31.737   8.571
39468W        W92364  15.963  29.538   1.441
39469W        W92365  10.158  27.239   8.347
39470W        W92366   6.817  22.582   1.383
39471W        W92367  19.557  15.765   9.600
39472W        W92368  32.402  22.206   0.015
39473W        W92369  23.102  21.896   0.058
39474W        W92370  33.697   4.109   8.003
39475W        W92371  19.437  25.807   8.996
39476W        W92372  27.850  16.907   1.822
39477W        W92373   4.030  27.456   2.733
39478W        W92374  25.565  20.181  10.126
39479W        W92375  34.526   3.774   8.961
39480W        W92376   5.278  27.081   2.067
39481W        W92377   7.270  27.047   0.703
39482W        W92378  15.825   0.857   3.198
39483W        W92379  17.256  15.909   2.406
39484W        W92380   9.001   4.537   1.150
39485W        W92381   0.960  16.287   0.068
39486W        W92382  31.093  16.163   7.405
39487W        W92383  20.520  31.049   0.651
39488W        W92384  21.817  24.643   1.835
39489W        W92385  28.562  11.550   8.831
39490W        W92386  22.008  10.020   3.780
39491W        W92387   2.339   9.713   8.616
39492W        W92388  27.714  27.512   1.663
39493W        W92389  18.168  22.354   2.636
39494W        W92390  32.260   0.549   3.289
39495W        W92391   1.625   0.953   3.422
39496W        W92392  26.050   8.761   8.177
39497W        W92393  14.636   5.364   1.599
39498W        W92394  10.871  11.853   1.060
39499W        W92395  16.728  29.049   8.191
39500W        W92396  19.513  21.259   2.058
39501W        W92397  25.963  17.299   0.317
39502W        W92398  11.995  12.162   3.198
39503W        W92399  22.479  18.037   1.444
39504W        W92400  31.687  12.004   7.064
39505W        W92401  16.920  12.956   9.122
39506W        W92402  20.632  17.058   2.220
39507W        W92403   2.747   3.136   1.577
39508W        W92404  34.737  20.390   8.634
39509W        W92405   4.265  13.823   8.648
39510W        W92406  15.683   6.317   9.885
39511W        W92407  18.988  15.719   9.319
39512W        W92408  17.252  11.010   4.084
39513W        W92409  33.856  10.401   0.491
39514W        W92410  26.688  27.709   8.460
39515W        W92411  14.140  19.968   2.068
39516W        W92412  32.066  27.190   0.907
39517W        W92413  11.440  24.239   0.728
39518W        W92414   7.338  32.341   7.240
39519W        W92415  33.858  15.534   3.328
39520W        W92416  22.721   7.772   2.322
39521W        W92417   4.000  10.804   1.448
39522W        W92418  14.251  13.349   0.422
39523W        W92419  27.888  10.430   3.888
39524W        W92420  30.457  13.246   0.560
39525W        W92421   4.949   9.790   1.863
39526W        W92422  26.514  21.495   7.579
39527W        W92423  34.483   8.153   8.414
39528W        W92424  29.231  33.115   2.168
39529W        W92425   1.995  11.740   8.766
39530W        W92426  11.032  29.849   0.214
39531W        W92427   9.676   8.361   0.638
39532W        W92428  17.437   5.712   1.936
39533W        W92429  35.698   6.239   9.765
39534W        W92430  27.843  29.096   2.901
39535W        W92431  17.019  28.261   1.711
39536W        W92432   0.803   0.397   1.475
39537W        W92433   8.765   0.321   9.161
39538W        W92434  32.621  27.960   1.814
39539W        W92435   9.425  26.954   7.321
39540W        W92436   6.279  29.807   9.325
39541W        W92437  27.253  15.752   2.180
39542W        W92438  20.797  33.139   8.881
39543W        W92439  28.725   8.955   3.572
39544W        W92440   1.552  16.878   0.466
39545W        W92441  19.819  15.846   8.518
39546W        W92442  34.778  15.069   9.591
39547W        W92443  11.759   2.432   7.974
39548W        W92444  10.789  10.549   9.318
39549W        W92445  23.396  13.947   8.321
39550W        W92446  11.677  10.147   1.954
39551W        W92447  18.030  20.494   1.453
39552W        W92448  25.783   0.002   8.763
39553W        W92449  31.628   9.708   9.677
39554W        W92450  34.752   9.292   8.680
39555W        W92451  35.973  22.522   2.108
39556W        W92452  25.088  30.634   1.603
39557W        W92453   9.454  10.641   9.128
39558W        W92454  10.397   5.168  10.167
39559W        W92455   2.725   7.237   2.370
39560W        W92456  24.722  14.885   0.962
39561W        W92457   2.939   7.109   8.754
39562W        W92458  26.494   9.003   1.642
39563W        W92459  35.638  34.314   3.016
39564W        W92460  28.654  15.026   8.827
39565W        W92461   2.650  27.894   0.869
39566W        W92462   4.362  22.053   0.660
39567W        W92463   6.338  24.195   2.243
39568W        W92464  18.812   8.858   1.890
39569W        W92465  19.581   9.347   1.224
39570W        W92466   3.424  14.926   1.955
39571W        W92467  32.868  16.596   3.001
39572W        W92468   1.092  21.942   1.665
39573W        W92469  19.014   3.486   8.346
39574W        W92470  29.044  17.773   1.050
39575W        W92471   2.085   0.820   9.496
39576W        W92472  28.994  30.047   7.839
39577W        W92473  25.007   1.741   2.944
39578W        W92474  17.029  11.287   3.710
39579W        W92475  18.537   1.907   9.575
39580W        W92476  26.235   8.705   3.129
39581W        W92477  26.798  11.965   9.858
39582W        W92478  11.708  32.385   2.688
39583W        W92479  34.364  29.756  10.258
39584W        W92480  15.805  33.706   0.859
39585W        W92481  15.841   4.576   2.633
39586W        W92482  22.617  34.032   9.915
39587W        W92483  27.982   7.223   7.699
39588W        W92484  13.183  26.111   9.306
39589W        W92485  34.754  17.684   8.918
39590W        W92486  31.342  14.967   0.766
39591W        W92487  28.741  33.190   2.052
39592W        W92488  34.330   9.496   9.420
39593W        W92489  13.705  22.584   7.479
39594W        W92490   1.009  21.058   8.849
39595W        W92491  21.913  24.498   1.250
39596W        W92492  14.595   4.621   2.836
39597W        W92493  30.346  22.876   3.083
39598W        W92494   0.897  16.173   2.916
39599W        W92495  28.032   8.998   0.377
39600W        W92496   9.435   1.085   0.629
39601W        W92497  24.193  33.599   1.914
39602W        W92498  18.402  16.282   0.057
39603W        W92499  25.746  32.170   9.533
39604W        W92500  25.545  29.741   0.475
39605W        W92501  32.905   7.970   0.776
39606W        W92502  26.995  26.249   9.642
39607W        W92503   4.070  34.264   0.180
39608W        W92504  24.231  13.496   2.248
39609W        W92505  12.751  12.828   9.571
39610W        W92506  27.269   6.646   0.315
39611W        W92507  15.028  22.828   0.814
39612W        W92508   8.008  23.828   8.417
39613W        W92509  18.020  35.060   1.263
39614W        W92510  24.542  16.089   0.660
39615W        W92511   4.239   6.242   9.739
39616W        W92512  16.479  29.393   0.821
39617W        W92513   1.906  35.803   9.965
39618W        W92514  30.109  16.398   1.001
39619W        W92515   5.734   5.793   0.977
39620W        W92516  15.270  12.386   0.754
39621W        W92517  15.990   2.779   2.785
39622W        W92518  25.827   0.407   0.804
39623W        W92519  23.418  31.003   1.466
39624W        W92520  15.857  35.301   9.497
39625W        W92521  27.849   1.119   8.164
39626W        W92522  10.126  30.093   2.232
39627W        W92523   8.948   5.040   7.921
39628W        W92524  21.991  26.206   2.863
39629W        W92525  30.204  34.424   2.404
39630W        W92526  32.329  13.772   8.310
39631W        W92527  32.025   6.257   3.329
39632W        W92528  22.470  11.917   0.881
39633W        W92529  30.430  10.717   7.314
39634W        W92530  20.259   5.347   1.085
39635W        W92531   8.171   7.031  10.054
39636W        W92532  16.764  27.614   2.310
39637W        W92533  30.041  26.868   2.690
39638W        W92534  24.393  12.096   7.804
39639W        W92535   0.657  24.106   0.374
39640W        W92536   3.782  29.424   1.782
39641W        W92537  24.782  14.578   9.830
39642W        W92538  24.784  13.545   1.131
39643W        W92539  24.232   9.362   2.751
39644W        W92540  15.957  24.750   1.663
39645W        W92541   9.933  28.842   1.278
39646W        W92542  18.382  15.517   0.736
39647W        W92543  22.398  10.731   8.646
39648W        W92544  22.339  34.593   0.452
39649W        W92545  21.185  18.939   1.509
39650W        W92546  23.305  24.480   1.427
39651W        W92547  28.622  30.358   1.986
39652W        W92548  23.661   9.503   9.788
39653W        W92549  15.596  24.057  10.281
39654W        W92550  25.347   6.868   9.469
39655W        W92551  20.423  31.395   2.933
39656W        W92552  29.045   4.856   8.872
39657W        W92553  13.291  19.272   8.282
39658W        W92554  28.056   3.253   1.518
39659W        W92555  33.908  23.933   0.108
39660W        W92556   8.114   2.728   0.323
39661W        W92557  11.279  33.316   1.164
39662W        W92558   6.906  20.386   9.129
39663W        W92559  24.088  31.017   9.109
39664W        W92560  13.368  30.656   0.730
39665W        W92561  31.567  19.705  10.313
39666W        W92562   6.266  21.426   2.830
39667W        W92563  30.273  22.831   7.713
39668W        W92564   6.638  34.876   1.753
39669W        W92565   6.702  12.451   1.794
39670W        W92566   4.141  27.094   8.212
39671W        W92567   3.888   5.717   9.558
39672W        W92568   8.228  26.171  10.277
39673W        W92569   9.840   2.478   7.637
39674W        W92570   8.362  35.080   1.299
39675W        W92571  21.848   9.645   1.553
39676W        W92572   9.619  25.753   1.446
39677W        W92573  30.184   8.873   7.224
39678W        W92574  21.024  24.770   9.205
39679W        W92575  28.317  26.394   1.159
39680W        W92576  18.449  13.572   9.405
39681W        W92577  19.357   2.170   8.114
39682W        W92578  10.592  11.318   9.133
39683W        W92579  20.393  13.832   8.863
39684W        W92580  16.868  32.294   9.206
39685W        W92581  25.703   3.962   8.854
39686W        W92582  14.092  32.513   2.632
39687W        W92583   3.794   5.884   1.551
39688W        W92584   0.146  12.213   0.428
39689W        W92585  17.436  35.609   9.266
39690W        W92586   7.644  21.401   9.378
39691W        W92587   3.748   7.683   9.694
39692W        W92588  32.630   0.786   9.643
39693W        W92589  21.255  12.632   0.607
39694W        W92590  24.473  35.492   0.005
39695W        W92591   9.958  26.424   7.683
39696W        W92592  16.283  33.105   9.645
39697W        W92593  12.812  30.288   2.587
39698W        W92594  28.499   9.931   2.423
39699W        W92595  10.738  31.079   9.267
39700W        W92596  13.210  22.984   9.657
39701W        W92597  11.195  29.368   0.062
39702W        W92598  10.615   0.148   3.030
39703W        W92599  18.131   0.835   2.697
39704W        W92600   0.469  27.078   7.984
39705W        W92601  10.817   4.465   9.255
39706W        W92602   7.651  18.999   9.844
39707W        W92603  21.776  34.310   2.103
39708W        W92604  24.091  24.943   2.369
39709W        W92605  18.849  20.890  10.140
39710W        W92606  23.282  21.830   3.460
39711W        W92607   2.053   6.055   9.585
39712W        W92608   1.924  29.481   7.081
39713W        W92609  30.638  32.695   7.552
39714W        W92610  20.559  18.657   1.612
39715W        W92611  11.624  31.999   3.106
39716W        W92612  35.972  20.564  10.102
39717W        W92613  26.587  10.215   0.051
39718W        W92614  28.189  10.226   7.773
39719W        W92615  17.499  11.326   1.909
39720W        W92616  24.808  25.518   0.452
39721W        W92617  12.775  25.231   9.996
39722W        W92618  13.532   6.593   7.415
39723W        W92619  27.320   1.516   1.015
39724W        W92620   0.746  15.254   9.747
39725W        W92621  29.046   9.749   1.572
39726W        W92622  26.921  26.061   1.012
39727W        W92623  31.029  25.782   3.601
39728W        W92624  24.394   1.815   7.450
39729W        W92625   2.686  11.142   1.291
39730W        W92626  19.792  26.043   1.018
39731W        W92627  17.591  15.003   1.166
39732W        W92628  31.967   5.566   9.458
39733W        W92629   8.344  25.862   1.875
39734W        W92630  15.581  30.318   8.971
39735W        W92631  21.676  20.551   1.436
39736W        W92632   9.601  31.155   7.770
39737W        W92633  27.061  10.904   0.414
39738W        W92634  12.230   5.021   7.881
39739W        W92635  23.637  24.631   7.452
39740W        W92636  30.632  22.901   1.953
39741W        W92637   4.441   5.539   8.632
39742W        W92638  28.264  21.861   6.995
39743W        W92639  12.140  24.846   2.527
39744W        W92640  14.696  10.483   7.246
39745W        W92641  19.217   7.603   2.260
39746W        W92642  32.502  16.251   0.659
39747W        W92643   7.077  17.476   1.584
39748W        W92644  12.077  31.240   9.555
39749W        W92645  23.181  30.270   0.318
39750W        W92646  31.074   4.597   0.458
39751W        W92647  17.573  11.501   9.395
39752W        W92648  26.453   0.975   1.949
39753W        W92649  19.182  28.899   3.780
39754W        W92650   6.542  10.074   7.071
39755W        W92651  11.449  10.332   2.406
39756W        W92652   0.105   0.857   7.816
39757W        W92653  11.325   0.546   9.397
39758W        W92654   6.360  13.929   0.456
39759W        W92655  33.161  14.492   9.053
39760W        W92656  13.622  15.268   9.704
39761W        W92657  14.646  29.865   7.663
39762W        W92658  27.539  11.285   0.033
39763W        W92659  30.328  27.764   2.309
39764W        W92660   4.475  25.398   1.869
39765W        W92661  30.020  31.005   1.026
39766W        W92662  16.195  27.071   3.161
39767W        W92663  25.232  34.107   7.802
39768W        W92664  26.661  19.887   8.432
39769W        W92665  16.134   9.594   9.836
39770W        W92666  31.353  26.867  10.026
39771W        W92667  27.740   5.861   1.271
39772W        W92668  16.129  34.721   9.736
39773W        W92669  16.895  24.643   7.466
39774W        W92670  28.314  27.126   2.260
39775W        W92671  26.132   3.762   1.439
39776W        W92672   9.883   3.705  10.005
39777W        W92673  22.720  15.463   1.254
39778W        W92674   6.881  21.453   7.880
39779W        W92675   0.726  36.003   8.740
39780W        W92676   9.458   0.709   1.520
39781W        W92677   1.892  19.123   7.323
39782W        W92678   1.460  29.396   9.742
39783W        W92679  32.696  24.824   8.103
39784W        W92680   1.497  11.451   8.353
39785W        W92681  10.246   5.252   7.977
39786W        W92682  30.295  24.556   0.040
39787W        W92683  33.026  34.455   8.999
39788W        W92684  26.069  23.339  10.159
39789W        W92685  11.292  14.278   9.014
39790W        W92686  23.871   8.518  10.024
39791W        W92687  26.485   8.992   0.978
39792W        W92688  10.625  24.115   1.078
39793W        W92689   9.218   1.140   7.166
39794W        W92690  34.157  17.201   3.324
39795W        W92691  23.638  33.117   8.655
39796W        W92692  30.070  28.676   3.670
39797W        W92693  29.420  23.667   0.973
39798W        W92694   8.830  30.078   7.199
39799W        W92695  31.306   2.809   2.696
39800W        W92696   1.119  30.625   0.430
39801W        W92697   6.375  15.960   2.189
39802W        W92698  20.883   7.715   2.446
39803W        W92699  12.587  19.528   3.496
39804W        W92700  24.644  21.739   9.960
39805W        W92701  20.078  35.581   1.942
39806W        W92702  16.516  29.294   2.318
39807W        W92703  31.295   7.378   3.388
39808W        W92704   5.219  22.972   3.523
39809W        W92705   1.741  33.637   0.138
39810W        W92706  13.470  26.039   1.197
39811W        W92707  14.744   7.648   8.302
39812W        W92708   3.740   9.419   0.204
39813W        W92709  18.831   6.504   2.922
39814W        W92710  31.378  18.214   7.197
39815W        W92711   0.061  24.278   8.420
39816W        W92712  10.901  26.654   0.596
39817W        W92713  21.124  33.035   1.049
39818W        W92714   3.203   9.549   1.909
39819W        W92715  17.807  19.411   2.438
39820W        W92716   9.214  12.564   2.487
39821W        W92717   3.043  17.471   8.525
39822W        W92718   7.694  13.198   1.334
39823W        W92719  19.678  15.105   8.323
39824W        W92720  14.756   3.193   9.160
39825W        W92721  10.003  32.312   2.253
39826W        W92722  13.743   7.731   2.864
39827W        W92723  28.403  35.533  10.166
39828W        W92724  17.359   1.205   2.443
39829W        W92725  19.358  13.077   8.837
39830W        W92726  28.477  34.760   8.234
39831W        W92727   2.796  27.315   0.313
39832W        W92728   4.136  15.801   8.500
39833W        W92729   7.771   3.348   8.565
39834W        W92730  22.672  28.737   3.157
39835W        W92731  27.667  20.243   2.795
39836W        W92732  25.919   9.367   2.581
39837W        W92733  21.764  30.973   2.221
39838W        W92734  21.733   4.308   0.893
39839W        W92735  11.263  31.543   0.176
39840W        W92736  28.396  16.199   2.629
39841W        W92737  28.699  15.684   3.327
39842W        W92738   3.697  33.325   2.191
39843W        W92739  17.339   6.907   1.871
39844W        W92740   2.162  14.514   9.040
39845W        W92741  22.196   4.242   8.728
39846W        W92742  15.649  34.206   8.124
39847W        W92743  13.285  26.720   8.777
39848W        W92744  12.452  14.577   8.131
39849W        W92745  22.611  20.911   9.904
39850W        W92746  22.114   9.752   8.817
39851W        W92747   3.218  35.033   9.805
39852W        W92748  25.422   4.259   7.791
39853W        W92749  17.134  16.701   2.093
39854W        W92750  29.244  15.536   9.411
39855W        W92751   5.329  12.196   2.396
39856W        W92752  20.287  31.495   9.903
39857W        W92753  17.933  20.716   0.059
39858W        W92754  30.825  18.618   2.338
39859W        W92755  22.960  21.140   1.855
39860W        W92756  32.839  18.841   9.791
39861W        W92757  27.069  22.874   1.147
39862W        W92758  14.551  15.281   8.639
39863W        W92759  24.035   9.106   0.966
39864W        W92760  21.260  15.722   9.232
39865W        W92761  21.316  31.969   2.731
39866W        W92762   2.069   2.970   2.016
39867W        W92763  26.492  11.921   0.382
39868W        W92764  35.272  20.787   0.933
39869W        W92765  22.704  23.491   7.291
39870W        W92766   6.526  10.910   8.352
39871W        W92767  14.524  28.579   3.439
39872W        W92768   7.541  35.285   7.444
39873W        W92769  26.830  24.271   3.056
39874W        W92770  17.918   4.461   9.259
39875W        W92771  26.428  23.468   2.110
39876W        W92772  31.101  29.991   0.784
39877W        W92773  22.757  26.912   8.976
39878W        W92774   9.023   7.605   3.271
39879W        W92775  12.210  35.326   8.541
39880W        W92776  33.354  17.884   4.406
39881W        W92777   8.696  26.140   1.712
39882W        W92778  21.881  31.831   0.639
39883W        W92779  16.923   5.945   8.909
39884W        W92780   0.817   4.475   8.820
39885W        W92781  35.112  16.101   3.160
39886W        W92782  25.340   8.607   2.964
39887W        W92783   9.188  10.483   0.703
39888W        W92784  24.675  33.027   1.105
39889W        W92785  12.486  27.087   3.213
39890W        W92786  32.266  15.678   8.996
39891W        W92787  23.371  30.395   8.233
39892W        W92788  28.704  26.660   0.459
39893W        W92789  10.435  24.948   2.766
39894W        W92790   6.273   5.592   7.030
39895W        W92791   8.022  20.678   9.778
39896W        W92792  16.236  27.796   8.378
39897W        W92793  17.875  35.550   8.285
39898W        W92794  11.695   2.858   0.789
39899W        W92795  25.257  24.527   8.521
39900W        W92796  15.449  25.000   1.504
39901W        W92797  32.386  21.154   1.737
39902W        W92798  27.181   0.534   2.832
39903W        W92799   1.524  11.085   0.365
39904W        W92800  14.337   9.546   0.928
39905W        W92801  24.415  31.761   9.077
39906W        W92802  22.532  22.268   0.445
39907W        W92803  14.057   7.364   9.679
39908W        W92804  14.371  13.137   1.606
39909W        W92805  32.370  32.325   9.118
39910W        W92806   0.829   0.627   8.735
39911W        W92807  16.763  26.769   9.683
39912W        W92808   5.370  27.397   2.892
39913W        W92809  10.006  30.495   1.194
39914W        W92810  13.778  15.823   0.382
39915W        W92811   5.675   5.118   7.545
39916W        W92812  33.998  15.292   0.431
39917W        W92813  14.159   3.800   9.152
39918W        W92814  24.793  35.401   8.060
39919W        W92815   6.717  30.388   1.876
39920W        W92816  32.601  21.310   0.724
39921W        W92817   7.479  12.123   7.411
39922W        W92818  12.368  30.999   9.864
39923W        W92819  24.595   4.355   2.306
39924W        W92820  10.157   2.875   0.880
39925W        W92821   1.929  15.517   3.245
39926W        W92822  22.464  30.053   0.682
39927W        W92823   1.126   1.854   0.216
39928W        W92824   6.954  22.175   3.040
39929W        W92825  31.084  12.166   0.108
39930W        W92826  19.063  32.756   1.670
39931W        W92827  19.429  35.653  10.253
39932W        W92828  21.458  22.579  10.228
39933W        W92829   5.102  13.375  10.053
39934W        W92830  34.177   0.524   8.508
39935W        W92831  28.899   4.298  10.195
39936W        W92832  33.505  30.786   8.371
39937W        W92833  24.451  18.843   1.591
39938W        W92834  14.973  30.396   8.862
39939W        W92835  11.847  19.084   1.779
39940W        W92836  29.443  13.498   1.578
39941W        W92837  13.833  29.908   2.929
39942W        W92838   9.999  23.039   9.379
39943W        W92839   5.681  32.261   3.245
39944W        W92840  31.786  24.576   2.931
39945W        W92841  18.623  21.711   9.573
39946W        W92842   5.791   6.953   2.562
39947W        W92843  14.181  22.120   0.982
39948W        W92844   9.197  10.164   3.554
39949W        W92845  20.513  19.554   1.731
39950W        W92846  32.572  31.228   9.539
39951W        W92847  17.234  20.996  10.296
39952W        W92848  22.074  21.802   3.299
39953W        W92849   7.431  15.446   2.061
39954W        W92850  30.222   4.560   0.425
39955W        W92851  15.053  32.300   3.299
39956W        W92852  16.904   9.149   3.367
39957W        W92853  30.355   7.446   0.064
39958W        W92854  20.954   4.918   0.547
39959W        W92855  29.830  22.262   0.644
39960W        W92856   3.228   1.985   8.684
39961W        W92857  29.562  33.603   7.947
39962W        W92858  16.326  11.883   9.057
39963W        W92859  10.913   8.966   9.874
39964W        W92860   7.880   7.864   8.946
39965W        W92861  30.979  35.386   9.860
39966W        W92862  28.218  21.080   9.232
39967W        W92863  32.247  22.535   0.821
39968W        W92864   3.125  11.565   9.062
39969W        W92865  18.991   1.009   8.121
39970W        W92866  30.074   7.112   3.516
39971W        W92867  27.327  24.018   2.249
39972W        W92868  26.198  18.346   9.780
39973W        W92869  12.434  17.947   1.682
39974W        W92870  13.811  12.822   2.413
39975W        W92871  14.528  22.636   9.783
39976W        W92872  10.629  26.904   0.264
39977W        W92873  10.869   1.590   8.073
39978W        W92874   7.056  23.370   0.243
39979W        W92875  20.049  27.989   3.013
39980W        W92876   0.549  33.261   8.211
39981W        W92877  27.959  18.130   1.263
39982W        W92878  12.958  16.720   8.763
39983W        W92879   1.326  28.035   7.423
39984W        W92880  25.041   0.425   3.057
39985W        W92881  10.089  22.634   0.636
39986W        W92882  16.233  33.905   0.327
39987W        W92883  29.147  13.837   0.190
39988W        W92884   4.241  27.563   2.252
39989W        W92885  35.298  33.922   3.132
39990W        W92886  15.621  15.622  10.018
39991W        W92887  21.973   7.147   1.870
39992W        W92888  25.500  27.401   1.873
39993W        W92889   9.266   9.042   1.100
39994W        W92890   9.767  13.703   0.424
39995W        W92891  14.109  27.928   8.644
39996W        W92892  17.953  28.515   8.369
39997W        W92893  32.882  17.051   9.079
39998W        W92894  12.800  34.574   1.025
39999W        W92895  13.594  12.242   0.914
40000W        W92896   7.402  32.865   1.859
40001W        W92897   3.913  33.657   1.066
40002W        W92898  22.736  15.261   8.728
40003W        W92899  21.959  13.021   8.007
40004W        W92900  11.256  14.036   0.158
40005W        W92901   4.347  20.242   2.794
40006W        W92902  15.681  12.449   9.428
40007W        W92903   0.859   8.359   1.414
40008W        W92904  35.619  13.959   2.343
40009W        W92905   4.902  26.428   7.601
40010W        W92906  21.470   0.213   9.926
40011W        W92907  23.750  32.533   1.112
40012W        W92908   3.166  29.789   1.021
40013W        W92909  18.036  14.220   9.508
40014W        W92910  27.906   6.222   0.564
40015W        W92911   7.429  15.407   3.069
40016W        W92912   9.040   1.376   7.597
40017W        W92913  15.158  31.342   0.921
40018W        W92914  11.973  20.408   9.120
40019W        W92915  10.281  34.186   2.150
40020W        W92916  34.753  21.826   8.601
40021W        W92917  30.058  20.492   1.304
40022W        W92918  22.394   9.321   8.686
40023W        W92919  12.614  15.528   1.893
40024W        W92920  10.726   7.544   8.139
40025W        W92921  11.657  15.412   8.671
40026W        W92922  31.333   5.810   0.666
40027W        W92923   5.939  24.188   0.563
40028W        W92924   7.404   6.092   1.449
40029W        W92925  22.296   3.197   9.031
40030W        W92926  32.691   7.722   2.813
40031W        W92927  35.172   7.425   2.042
40032W        W92928  23.050  32.246   1.691
40033W        W92929  28.110  29.142   9.044
40034W        W92930  19.139   6.277   1.016
40035W        W92931  27.930  33.289   9.684
40036W        W92932  15.729   5.355   0.930
40037W        W92933  19.471  11.528   0.574
40038W        W92934   8.490   1.206  10.194
40039W        W92935  33.968  23.936   0.910
40040W        W92936  32.175  13.747   9.751
40041W        W92937  25.797  23.510   8.728
40042W        W92938   4.926   7.794   1.234
40043W        W92939  10.637  35.243  10.282
40044W        W92940  28.456   0.039  10.094
40045W        W92941  34.778  13.173   0.882
40046W        W92942   3.151   5.270   0.435
40047W        W92943  35.236   5.367   8.478
40048W        W92944   3.309  17.418   2.384
40049W        W92945  16.873   1.141   8.465
40050W        W92946  23.012   1.053   7.508
40051W        W92947   4.832  20.284   7.602
40052W        W92948  11.971   2.649   7.381
40053W        W92949   5.013  23.506   2.112
40054W        W92950  25.950  23.483   1.859
40055W        W92951  29.834  16.684   1.559
40056W        W92952   3.843  20.748   9.362
40057W        W92953  29.229  26.746   7.268
40058W        W92954  21.709  12.900   3.311
40059W        W92955  34.628  31.830   2.108
40060W        W92956  20.525  23.822   9.646
40061W        W92957  18.417  31.165   8.328
40062W        W92958  13.610   2.171   9.402
40063W        W92959  22.427  28.411   1.122
40064W        W92960  21.688  25.252   3.473
40065W        W92961   3.491  12.072   0.623
40066W        W92962   8.386  34.954   0.787
40067W        W92963  23.376  21.595   7.438
40068W        W92964  30.953   7.139   8.989
40069W        W92965  15.118  19.760   9.699
40070W        W92966  26.170   8.993   9.847
40071W        W92967   6.168  15.435   9.579
40072W        W92968  25.552   4.617   1.831
40073W        W92969   7.225  13.987   3.577
40074W        W92970   4.667  17.631   1.042
40075W        W92971  15.979  17.552   8.930
40076W        W92972   6.143  20.012   8.462
40077W        W92973   3.431  17.222   1.317
40078W        W92974   8.362   5.076   0.050
40079W        W92975   4.629   5.280   9.538
40080W        W92976   2.483  33.891   9.472
40081W        W92977  10.000  17.239   8.494
40082W        W92978  26.030   3.667   0.454
40083W        W92979  32.750   6.672   1.365
40084W        W92980  34.058  25.924   2.530
40085W        W92981   5.029   8.734   0.931
40086W        W92982   9.411  11.295   3.219
40087W        W92983  29.943  11.304   2.348
40088W        W92984  29.046  22.360   8.953
40089W        W92985  15.138  30.402   0.279
40090W        W92986   3.083  35.918   1.726
40091W        W92987  27.570   7.080   0.095
40092W        W92988  30.720  28.191   3.730
40093W        W92989  34.127  34.503   0.487
40094W        W92990  11.097  18.409   3.065
40095W        W92991  17.349  12.226   2.186
40096W        W92992  32.376  18.543   3.119
40097W        W92993   1.911   2.071   1.574
40098W        W92994  12.951  16.160   8.761
40099W        W92995  32.587   5.703   8.300
40100W        W92996  35.595   4.173   8.080
40101W        W92997  17.559  10.591   7.427
40102W        W92998   6.910  25.539   0.711
40103W        W92999   1.383  16.187   9.198
40104W        W93000   2.390   2.224   2.908
40105W        W93001   5.460  25.146   0.935
40106W        W93002   0.873  26.122   8.149
40107W        W93003  33.215  20.593   1.029
40108W        W93004  19.824  17.992   0.574
40109W        W93005   3.050  22.765   2.285
40110W        W93006  27.683  30.560  10.093
40111W        W93007   3.653  12.755   2.361
40112W        W93008  10.106   5.649  10.051
40113W        W93009   5.264  17.499   3.074
40114W        W93010  17.322  35.712   1.187
40115W        W93011  11.118  26.239   1.483
40116W        W93012  13.806  34.691   9.326
40117W        W93013   5.877   0.596  10.291
40118W        W93014   9.999  30.269   8.653
40119W        W93015   3.523   9.925   0.651
40120W        W93016  10.077  26.392  10.074
40121W        W93017   3.988   6.986   0.881
40122W        W93018  30.373  29.268   9.136
40123W        W93019  26.755  16.368   0.298
40124W        W93020  31.867  21.097   9.294
40125W        W93021   0.239  33.656   9.314
40126W        W93022  31.445   7.530   1.394
40127W        W93023   6.656   1.769   1.439
40128W        W93024  35.447  24.487   3.774
40129W        W93025  31.496  21.437   8.144
40130W        W93026   9.600  12.280   0.986
40131W        W93027  14.518  13.662   1.633
40132W        W93028  22.195  16.142   9.502
40133W        W93029  29.268  33.196   9.777
40134W        W93030  25.607  13.286   2.631
40135W        W93031  28.726   8.141   9.083
40136W        W93032  20.854  14.143   8.695
40137W        W93033  12.089  17.224   0.203
40138W        W93034  26.266   8.545   7.498
40139W        W93035  11.995  20.926   2.706
40140W        W93036   4.007  32.425   2.422
40141W        W93037  25.997  32.448   8.053
40142W        W93038   4.135   4.910   2.648
40143W        W93039   4.800  25.256  10.259
40144W        W93040  30.672  31.666   9.643
40145W        W93041  22.433  14.094   8.359
40146W        W93042  11.855  16.696   9.070
40147W        W93043  21.163  26.517   1.823
40148W        W93044   7.786  26.010   0.124
40149W        W93045  33.390  30.093   9.715
40150W        W93046   3.381  29.698  10.275
40151W        W93047  35.829   2.708  10.016
40152W        W93048  32.926  22.061   3.801
40153W        W93049  13.731  31.200   1.720
40154W        W93050  25.692  17.571   2.755
40155W        W93051  30.942  11.771   9.447
40156W        W93052  19.186  13.904   2.101
40157W        W93053   0.922  19.737   0.833
40158W        W93054  24.476  28.171   8.357
40159W        W93055   3.113  33.514   3.487
40160W        W93056   1.199   9.658   1.860
40161W        W93057  11.070   7.840   7.938
40162W        W93058   0.943  28.618   7.190
40163W        W93059   7.582   6.939   8.462
40164W        W93060   5.985   2.002   0.548
40165W        W93061  13.903  13.242   8.378
40166W        W93062   9.067  11.792   9.960
40167W        W93063   1.014  18.763   0.917
40168W        W93064   7.737  19.898   8.889
40169W        W93065   5.171  22.479   2.366
40170W        W93066  23.684  17.531   7.879
40171W        W93067   8.337  17.266   0.098
40172W        W93068  33.039  32.196   7.612
40173W        W93069  17.924  29.716   2.054
40174W        W93070  26.773  32.687   0.702
40175W        W93071  22.551   8.202   8.386
40176W        W93072  12.557  15.473   0.147
40177W        W93073   3.920  24.189   1.530
40178W        W93074  33.600  17.173   9.503
40179W        W93075   5.814  23.530   1.608
40180W        W93076  28.514   0.244   9.543
40181W        W93077  26.117  29.675   8.082
40182W        W93078  33.119  23.398   1.541
40183W        W93079   8.169  29.366   8.393
40184W        W93080  12.139  10.169   1.086
40185W        W93081   2.556   3.517   2.681
40186W        W93082   5.035  19.708   9.731
40187W        W93083   8.400  19.333   1.742
40188W        W93084  21.411  16.183   1.585
40189W        W93085   0.635  30.155   9.018
40190W        W93086  22.742  16.678   3.526
40191W        W93087  26.107  20.136   1.980
40192W        W93088  23.698  12.110   2.294
40193W        W93089   6.692  36.002  10.078
40194W        W93090  17.246  13.384   7.636
40195W        W93091   6.582  25.359   0.346
40196W        W93092   8.601  26.221   2.244
40197W        W93093   1.565   1.393   8.725
40198W        W93094  10.744  14.667   0.698
40199W        W93095   3.309  13.733   0.788
40200W        W93096  34.005  15.180   8.352
40201W        W93097   8.200  24.843   1.324
40202W        W93098  29.226   9.972   0.073
40203W        W93099   5.465  15.691   8.983
40204W        W93100  35.713  26.969   9.439
40205W        W93101  24.330  12.803   2.752
40206W        W93102  26.733   6.868   3.070
40207W        W93103  28.864   1.082   8.467
40208W        W93104   7.509  21.597   9.954
40209W        W93105  14.610  28.157   9.457
40210W        W93106  18.659  19.605   8.986
40211W        W93107   4.927  11.001   8.911
40212W        W93108  20.800  20.309   8.438
40213W        W93109  29.307  16.992   2.002
40214W        W93110  26.605   9.967   8.957
40215W        W93111  20.336  34.685   1.544
40216W        W93112  19.249  28.021   9.348
40217W        W93113  27.946   3.063   3.304
40218W        W93114  25.840  29.718   9.095
40219W        W93115  27.771  31.497   9.410
40220W        W93116   6.900  26.120   1.754
40221W        W93117  22.117  13.956   2.452
40222W        W93118  28.035  30.180   1.107
40223W        W93119  27.560  33.900   8.527
40224W        W93120   6.806  12.639   2.373
40225W        W93121   0.661   6.792   8.241
40226W        W93122   0.702  25.942   0.210
40227W        W93123  29.615  15.533   2.412
40228W        W93124  33.798  31.477   7.972
40229W        W93125  29.347  32.665   9.807
40230W        W93126  28.894  33.570   7.854
40231W        W93127  34.436  22.183   8.437
40232W        W93128   3.811   3.602   0.279
40233W        W93129  32.524   3.983   0.774
40234W        W93130   0.052   0.087   1.398
40235W        W93131  22.344  26.591   9.872
40236W        W93132  12.287  11.713   7.934
40237W        W93133  22.454  19.200   1.513
40238W        W93134   6.863  31.617   0.678
40239W        W93135  22.527  35.207   1.950
40240W        W93136   7.835  23.266   1.986
40241W        W93137  33.114  10.897   7.282
40242W        W93138  20.293  12.661   0.107
40243W        W93139  17.894  18.055   0.545
40244W        W93140  10.715   7.731   8.989
40245W        W93141  10.729  27.302   1.837
40246W        W93142   7.310   5.956   0.146
40247W        W93143  33.427   5.096   7.984
40248W        W93144  10.686  18.650   9.700
40249W        W93145  27.057  15.528   1.283
40250W        W93146   9.174  20.278   0.556
40251W        W93147  30.877   2.077   0.445
40252W        W93148  22.242  29.399   8.978
40253W        W93149   7.444   9.374   2.883
40254W        W93150  22.225   5.308   7.109
40255W        W93151   3.274   9.102   0.082
40256W        W93152  19.061  26.136   3.230
40257W        W93153  26.557  14.147   0.307
40258W        W93154  34.983  11.450   7.716
40259W        W93155   0.308   8.168   0.352
40260W        W93156  16.260   6.484   2.513
40261W        W93157  21.277  13.177   0.243
40262W        W93158  12.297  26.034   0.892
40263W        W93159   1.464  10.209   1.983
40264W        W93160   8.093  33.483   9.455
40265W        W93161   1.384  31.029   9.360
40266W        W93162  22.222  34.442   8.935
40267W        W93163   2.481  33.633   0.729
40268W        W93164  18.672  34.096   2.282
40269W        W93165   9.430   9.524   0.265
40270W        W93166  15.549  30.790   0.265
40271W        W93167  32.317  24.820   0.644
40272W        W93168   4.766  21.057   1.093
40273W        W93169  32.120  23.393   0.589
40274W        W93170  14.634  26.170   8.248
40275W        W93171   0.544  33.242   2.440
40276W        W93172  29.583  32.742   1.156
40277W        W93173  27.018  23.225   3.038
40278W        W93174   4.133   4.071   0.453
40279W        W93175   2.913  10.919  10.302
40280W        W93176  13.470  21.438   9.968
40281W        W93177  33.037  22.696   8.137
40282W        W93178  25.949  16.226   8.522
40283W        W93179  32.921  35.727   7.157
40284W        W93180  18.709  18.723   0.298
40285W        W93181  27.126  20.787   0.365
40286W        W93182  31.461  12.578   0.053
40287W        W93183   0.743  13.164   8.428
40288W        W93184  27.352  10.374   1.839
40289W        W93185  31.623  34.020   2.727
40290W        W93186  35.007  19.757   1.915
40291W        W93187   5.200  33.294   9.366
40292W        W93188   4.893  26.971   2.340
40293W        W93189  10.726  15.483   0.319
40294W        W93190  33.352   4.066   7.578
40295W        W93191   4.920   8.501   9.125
40296W        W93192  24.163  12.390   8.159
40297W        W93193   6.951  26.127   2.725
40298W        W93194   8.174  10.528   0.380
40299W        W93195   0.597  32.828   3.201
40300W        W93196  28.398  17.752  10.272
40301W        W93197  18.041   3.941   7.437
40302W        W93198  10.256  27.835   2.731
40303W        W93199  28.663  19.352   8.508
40304W        W93200  33.033  20.620   2.560
40305W        W93201  22.406  28.027   2.636
40306W        W93202  30.615  21.094  10.273
40307W        W93203  34.285  27.677   9.887
40308W        W93204  14.324  22.470   9.277
40309W        W93205   6.780  33.472   8.483
40310W        W93206   2.050   4.250   0.253
40311W        W93207  15.905  23.795   3.111
40312W        W93208   0.938   6.900   1.675
40313W        W93209   9.575   5.262   9.546
40314W        W93210   3.396  12.418   3.787
40315W        W93211  33.998  12.318   3.925
40316W        W93212  11.506  33.625   2.512
40317W        W93213  13.295  26.454   8.349
40318W        W93214  34.794  25.505   1.037
40319W        W93215  16.087  13.609   2.190
40320W        W93216  35.596  10.173   7.968
40321W        W93217   7.279   7.359   8.171
40322W        W93218   0.882  20.820   1.713
40323W        W93219  33.270  18.208   1.415
40324W        W93220  13.092  12.840   0.636
40325W        W93221  10.090  12.919   2.112
40326W        W93222   8.991  18.121   1.315
40327W        W93223  15.432  17.987   2.255
40328W        W93224  30.778  25.978   0.449
40329W        W93225   0.954  28.086   2.844
40330W        W93226  21.683  35.831   9.012
40331W        W93227  11.799  10.680   0.762
40332W        W93228  13.724   7.802   0.797
40333W        W93229  25.130  20.710   1.275
40334W        W93230   5.859  27.572   2.981
40335W        W93231  24.362  24.265   8.857
40336W        W93232   8.859  20.043   3.538
40337W        W93233   7.881  27.334   7.883
40338W        W93234  10.105  32.809   9.621
40339W        W93235   9.782  11.334   8.982
40340W        W93236  20.115  10.727   9.023
40341W        W93237  20.469  14.128   0.505
40342W        W93238  21.935  31.274   2.672
40343W        W93239   6.428   3.994   1.694
40344W        W93240  35.640  31.587   9.574
40345W        W93241  14.405   4.305   8.394
40346W        W93242  24.351   8.359   9.259
40347W        W93243   0.210  11.693   8.092
40348W        W93244   0.418   7.774   0.628
40349W        W93245   3.888   6.942   9.245
40350W        W93246  35.186  18.282   2.351
40351W        W93247  28.711  29.029   9.020
40352W        W93248   4.158  23.705   9.630
40353W        W93249  26.738   2.482   1.973
40354W        W93250   5.852  12.521   1.918
40355W        W93251   2.564  21.507   9.788
40356W        W93252  35.839  26.416   9.671
40357W        W93253  14.320  23.008   7.949
40358W        W93254  31.973  25.173   8.995
40359W        W93255  17.170   1.345   8.818
40360W        W93256   1.591  31.443   8.807
40361W        W93257  16.905  24.487   2.897
40362W        W93258   7.808  23.545   8.799
40363W        W93259  18.308  25.694   0.856
40364W        W93260  33.563  29.215   9.516
40365W        W93261  34.559  25.940   9.755
40366W        W93262  23.055  17.290   9.900
40367W        W93263   0.571  23.022   8.160
40368W        W93264   1.531   7.491  10.323
40369W        W93265  30.245  32.355   7.260
40370W        W93266  21.926   6.380   1.302
40371W        W93267  29.523  29.184   1.771
40372W        W93268   2.101  19.046   1.103
40373W        W93269   4.692  23.624   9.260
40374W        W93270  26.879   0.080   0.972
40375W        W93271  15.569  19.512   9.646
40376W        W93272   4.760   1.059   9.959
40377W        W93273  19.815  15.999   7.171
40378W        W93274  28.070   8.936   8.252
40379W        W93275   2.950  13.383   3.846
40380W        W93276   7.563   6.902   2.494
40381W        W93277  25.858  32.877   8.678
40382W        W93278  26.215   5.941   7.873
40383W        W93279   2.054   8.071   7.606
40384W        W93280  25.213   6.197   1.928
40385W        W93281   5.382  30.860   7.816
40386W        W93282  20.653  14.208   0.948
40387W        W93283  33.891   0.108   9.925
40388W        W93284  31.407  30.671   0.972
40389W        W93285  26.751  16.184   8.445
40390W        W93286  18.964  16.392   8.365
40391W        W93287   5.778  17.566   3.278
40392W        W93288  15.913  25.841   2.536
40393W        W93289   0.170  35.111   8.700
40394W        W93290   7.198  21.624   0.692
40395W        W93291  20.338  14.780   7.608
40396W        W93292  34.627  23.960   0.298
40397W        W93293  15.544   0.995   2.192
40398W        W93294  33.860  12.436   0.987
40399W        W93295  23.362   0.433   7.974
40400W        W93296  25.321  15.886   9.264
40401W        W93297  13.601  14.476   0.147
40402W        W93298  20.455  13.232   1.990
40403W        W93299  22.241   9.701   2.308
40404W        W93300   6.941  29.267   2.952
40405W        W93301  20.503  13.827   3.894
40406W        W93302   6.337  14.412   0.693
40407W        W93303  23.526  16.868   9.269
40408W        W93304  33.427  29.789   1.223
40409W        W93305  35.688  34.453   1.273
40410W        W93306  16.968  11.094   3.157
40411W        W93307  25.391   1.117  10.290
40412W        W93308   6.482  35.408  10.286
40413W        W93309  33.950  23.055   0.371
40414W        W93310  12.971  24.803   9.734
40415W        W93311  10.000   6.416   1.437
40416W        W93312  28.732  16.976   3.150
40417W        W93313   6.956  17.042   8.495
40418W        W93314  23.888  16.112   1.700
40419W        W93315   8.872  32.258   8.513
40420W        W93316  26.705  26.036   2.014
40421W        W93317  15.491   0.841   1.690
40422W        W93318  34.148  18.095   2.089
40423W        W93319  26.366  25.461   8.415
40424W        W93320  20.828  10.664   8.381
40425W        W93321   6.946   1.179   1.661
40426W        W93322   6.833   0.722   9.205
40427W        W93323  33.610  28.724   9.963
40428W        W93324  30.433  28.179   8.611
40429W        W93325  32.452   0.520   8.265
40430W        W93326  16.652   2.801   0.191
40431W        W93327  32.832   9.768   1.312
40432W        W93328  20.879  26.824   1.555
40433W        W93329  31.289  29.644   7.647
40434W        W93330  11.030  22.500   1.801
40435W        W93331   0.202   4.444   0.292
40436W        W93332  17.533  17.472   2.086
40437W        W93333  16.255  33.687   9.663
40438W        W93334  25.886  26.670  10.205
40439W        W93335  35.011  12.962   2.556
40440W        W93336  21.133  21.521   0.400
40441W        W93337  11.216  33.695   0.704
40442W        W93338  26.559  21.555   0.609
40443W        W93339   0.597   3.826   9.505
40444W        W93340  35.441  11.629   1.955
40445W        W93341  13.671   8.966   0.615
40446W        W93342  33.578   2.173   7.941
40447W        W93343  24.590   9.097   8.923
40448W        W93344  33.734   3.512   2.067
40449W        W93345  19.709  16.569   3.398
40450W        W93346   2.654  24.233   9.211
40451W        W93347  33.435  26.915   1.180
40452W        W93348  28.365  18.224   7.618
40453W        W93349  19.806  11.244   0.267
40454W        W93350   5.012  29.531   3.216
40455W        W93351  25.884  10.499   9.232
40456W        W93352  11.099  29.655   8.107
40457W        W93353  21.195   0.949   8.193
40458W        W93354  34.679  33.790   9.141
40459W        W93355  22.228  33.931   1.132
40460W        W93356   7.350  10.715   7.376
40461W        W93357   7.771  25.202   8.920
40462W        W93358  22.637  21.517   1.831
40463W        W93359  15.827   5.840   8.819
40464W        W93360   2.774  28.769   7.977
40465W        W93361   8.138   6.122   3.570
40466W        W93362  32.004   7.712   8.702
40467W        W93363   3.333  14.730   8.533
40468W        W93364  13.809  13.553   7.551
40469W        W93365  12.166  13.887   8.894
40470W        W93366  34.704  12.169  10.153
40471W        W93367  34.051  17.795   2.526
40472W        W93368  24.381  30.404   0.716
40473W        W93369  32.051  23.140   7.952
40474W        W93370  28.564  14.634   2.137
40475W        W93371  23.516  27.417   3.302
40476W        W93372  24.792  13.651   1.669
40477W        W93373  24.876  29.418   0.105
40478W        W93374  22.927  10.800   0.587
40479W        W93375  21.358  33.281   2.657
40480W        W93376   7.330  11.468   8.589
40481W        W93377  30.430  28.849   0.295
40482W        W93378  30.066  23.919  10.166
40483W        W93379  19.902   8.587   1.169
40484W        W93380  19.588   9.258   3.276
40485W        W93381  20.689  11.246   2.694
40486W        W93382  23.629   2.280   7.132
40487W        W93383   7.737  20.877   1.463
40488W        W93384  33.199  26.443   2.810
40489W        W93385   0.040  10.148   9.090
40490W        W93386  32.128  33.721   9.465
40491W        W93387  25.167   6.935   0.314
40492W        W93388  14.015  25.200   7.671
40493W        W93389   5.344   6.622   3.711
40494W        W93390   5.364  15.564   8.370
40495W        W93391   4.975  15.267   8.208
40496W        W93392  26.524   6.650   2.119
40497W        W93393   3.085  21.523   7.995
40498W        W93394  23.260  14.296   7.557
40499W        W93395   8.659  13.189   1.527
40500W        W93396  30.531   5.489  10.158
40501W        W93397   0.375   4.175   2.807
40502W        W93398  31.182   9.359   8.011
40503W        W93399   4.393  10.250   8.897
40504W        W93400  21.688  33.541   8.404
40505W        W93401   2.754  17.903   2.824
40506W        W93402  22.482  14.221   2.140
40507W        W93403   3.299   0.735  10.170
40508W        W93404  24.743  35.179   0.306
40509W        W93405   7.108  21.250   9.913
40510W        W93406  27.092  22.830   0.176
40511W        W93407   1.765  35.094   0.447
40512W        W93408  25.740  33.130  10.126
40513W        W93409  30.509  12.260   1.594
40514W        W93410   9.839   4.270  10.122
40515W        W93411   3.155  16.332   2.911
40516W        W93412  16.217  26.229   2.896
40517W        W93413   7.175  30.639   0.416
40518W        W93414  24.690   1.682   0.937
40519W        W93415  30.807  13.149   2.060
40520W        W93416  17.279  14.086  10.213
40521W        W93417  11.218   3.114   7.303
40522W        W93418   4.768  14.001   1.825
40523W        W93419   4.226  23.393   2.258
40524W        W93420  21.228  16.651   1.481
40525W        W93421  35.513  34.336   0.269
40526W        W93422  15.288  14.622   3.674
40527W        W93423  14.715  19.682   1.451
40528W        W93424  19.797  14.118   1.204
40529W        W93425  23.711  23.188   7.886
40530W        W93426   6.805  20.098   1.200
40531W        W93427  21.005   5.325   0.862
40532W        W93428  13.319  18.169   0.275
40533W        W93429  25.111   0.792   8.349
40534W        W93430  22.273  26.460  10.333
40535W        W93431  26.761  30.277   0.939
40536W        W93432  15.057  30.672  10.152
40537W        W93433  35.921  14.052   7.680
40538W        W93434  29.944   8.897   9.032
40539W        W93435  11.465  23.729   8.934
40540W        W93436  31.251   5.798   9.442
40541W        W93437  21.763  15.537   2.841
40542W        W93438  31.237  17.360   2.907
40543W        W93439  29.568   5.798   7.835
40544W        W93440   5.159  16.387   9.467
40545W        W93441   5.811   5.312   1.160
40546W        W93442  14.502  32.015   9.763
40547W        W93443  32.219  22.436   1.461
40548W        W93444  33.191  21.181   2.629
40549W        W93445  30.818  34.243   9.645
40550W        W93446   0.957  19.606   3.843
40551W        W93447  14.467   7.839   2.252
40552W        W93448  23.190  11.666   3.531
40553W        W93449  21.592  20.833   9.962
40554W        W93450   4.381  23.140   2.737
40555W        W93451  32.637   5.166   1.501
40556W        W93452  23.403  22.975   3.011
40557W        W93453  12.872  21.337   0.302
40558W        W93454  21.837  28.329   2.202
40559W        W93455   6.357  32.962   1.126
40560W        W93456  10.488   7.692   3.007
40561W        W93457  19.791  32.826   8.398
40562W        W93458  25.878  27.778  10.228
40563W        W93459  34.996  20.546   0.517
40564W        W93460   0.293  35.117   9.879
40565W        W93461  11.265   4.523   8.827
40566W        W93462   8.384  22.183   9.977
40567W        W93463  31.911   5.092   0.880
40568W        W93464  15.298  35.888   1.973
40569W        W93465  19.767  29.551   2.453
40570W        W93466   4.879   4.870   8.703
40571W        W93467  21.252  18.137   8.802
40572W        W93468  20.331  16.352   2.509
40573W        W93469  18.657  35.826   1.095
40574W        W93470  20.907  35.665   1.382
40575W        W93471  14.294  13.522   9.898
40576W        W93472  31.187   3.015   9.177
40577W        W93473  26.904   0.557  10.187
40578W        W93474  12.759  24.484   8.387
40579W        W93475  32.704  14.628   0.412
40580W        W93476  24.319  10.024   8.520
40581W        W93477   2.551  10.683   1.123
40582W        W93478  12.544  27.835   7.334
40583W        W93479   4.146   0.888   8.402
40584W        W93480   9.765   0.487   9.178
40585W        W93481  35.166  33.359   0.314
40586W        W93482  15.483  11.061   3.834
40587W        W93483  20.988   9.762   1.699
40588W        W93484  15.073   3.671   1.602
40589W        W93485  34.368  14.172   3.733
40590W        W93486  20.560  13.875   2.852
40591W        W93487   5.339  10.611   0.668
40592W        W93488  35.432  13.898   7.737
40593W        W93489  16.631   5.664   8.645
40594W        W93490   2.988  22.589   0.479
40595W        W93491  26.702  17.504   8.876
40596W        W93492  19.689  23.853   0.377
40597W        W93493  12.263   3.916   8.142
40598W        W93494   6.796  18.797   8.232
40599W        W93495   3.492   8.576   0.211
40600W        W93496  27.983   8.204  10.033
40601W        W93497  18.861  23.594  10.289
40602W        W93498  12.537  19.547   8.952
40603W        W93499  19.700  23.230   3.774
40604W        W93500   3.927   4.925   1.528
40605W        W93501   0.199  25.901   3.201
40606W        W93502  16.293  30.677   0.719
40607W        W93503  21.429  19.777   8.554
40608W        W93504  28.263  13.649   1.709
40609W        W93505  13.949  20.061   1.256
40610W        W93506  35.329   9.738   0.323
40611W        W93507   8.885   4.281   2.228
40612W        W93508  14.696  27.431   8.181
40613W        W93509   0.979  21.433   1.834
40614W        W93510   1.387  17.472   8.230
40615W        W93511  33.210   4.548   1.733
40616W        W93512   9.100  35.393   0.618
40617W        W93513  15.811  13.909   7.622
40618W        W93514   7.225  28.492   0.469
40619W        W93515  31.066  31.110   0.132
40620W        W93516  32.235   9.934   3.598
40621W        W93517  11.231  29.365   8.949
40622W        W93518  17.382  12.242   0.422
40623W        W93519   1.713  34.784   2.231
40624W        W93520  28.982  14.773   2.399
40625W        W93521  34.844  25.574   2.834
40626W        W93522  33.172   6.145   2.504
40627W        W93523  19.356   6.072   8.597
40628W        W93524  26.822  19.400   8.055
40629W        W93525  11.098  22.096   9.066
40630W        W93526  26.499   0.296   9.077
40631W        W93527  29.692  20.857   3.364
40632W        W93528  32.675  23.594   1.448
40633W        W93529  16.623  11.544   3.453
40634W        W93530   2.596   4.990   1.178
40635W        W93531   4.276  27.748   1.411
40636W        W93532  17.814  31.176   2.265
40637W        W93533  14.954   7.884   2.093
40638W        W93534  29.157   2.660   1.526
40639W        W93535  26.873  18.077   0.917
40640W        W93536  29.558  12.456   7.269
40641W        W93537   8.138  21.669   9.143
40642W        W93538  30.217  13.510   8.289
40643W        W93539  16.224   1.475   1.582
40644W        W93540  14.852   6.504   2.161
40645W        W93541  35.805  15.076   1.230
40646W        W93542  35.785  30.367   3.635
40647W        W93543  31.317  29.811   2.205
40648W        W93544  25.546  10.257   7.536
40649W        W93545  12.601   2.850  10.150
40650W        W93546  32.948  25.356   9.224
40651W        W93547   5.670  23.299   8.797
40652W        W93548  17.320   2.128   0.112
40653W        W93549   6.167  35.688   8.444
40654W        W93550  32.938  30.423   8.550
40655W        W93551   2.725  31.898   9.260
40656W        W93552   5.173   7.891   0.195
40657W        W93553   5.870  26.633   2.426
40658W        W93554   3.707  12.541   1.485
40659W        W93555  32.677  17.105   1.250
40660W        W93556   5.803   2.305   2.855
40661W        W93557  34.511  10.793   1.781
40662W        W93558   4.894  14.035   3.412
40663W        W93559  20.552   7.756   3.267
40664W        W93560  25.213  23.314   1.882
40665W        W93561  18.803  15.579   2.432
40666W        W93562  26.057  17.151   1.122
40667W        W93563  19.081  16.647   9.514
40668W        W93564  20.955  21.513   9.373
40669W        W93565  23.790   7.001   2.764
40670W        W93566   9.186  23.323   8.500
40671W        W93567   7.500  23.080   2.347
40672W        W93568  35.083  19.469   0.691
40673W        W93569  25.144   3.305   8.923
40674W        W93570  27.265  12.161   0.681
40675W        W93571   2.557  18.915   8.432
40676W        W93572  12.729  13.933   8.748
40677W        W93573  13.379   2.909   1.347
40678W        W93574  28.317  16.449   9.636
40679W        W93575  13.495  10.464   8.857
40680W        W93576  12.076   8.985   2.207
40681W        W93577  27.427  18.034   1.079
40682W        W93578   1.064  34.693   7.439
40683W        W93579  24.863   5.328   9.287
40684W        W93580  21.911   4.342   1.441
40685W        W93581  34.822  20.714   3.150
40686W        W93582  31.655   9.173   0.068
40687W        W93583  34.077  24.672   3.206
40688W        W93584  11.633  11.199   7.588
40689W        W93585  33.360   6.263   1.740
40690W        W93586  26.922   6.749   9.812
40691W        W93587  34.742  35.787   9.719
40692W        W93588   1.794  18.292   3.117
40693W        W93589  34.463  23.218   8.727
40694W        W93590  32.418  16.169   8.960
40695W        W93591  21.447  25.537   9.204
40696W        W93592  32.245  29.666   9.792
40697W        W93593  28.171  22.802  10.180
40698W        W93594   1.213  35.369   9.137
40699W        W93595  21.818  31.230   7.658
40700W        W93596   6.420  27.111   9.071
40701W        W93597  26.168  32.129   9.911
40702W        W93598  30.579  23.213   1.541
40703W        W93599   1.372  27.254   7.513
40704W        W93600   5.431   8.926   9.697
40705W        W93601   8.283  33.886   9.221
40706W        W93602  25.065   2.276   7.883
40707W        W93603   4.570   1.046   0.136
40708W        W93604  11.212  15.184   8.970
40709W        W93605  27.058  32.425   0.401
40710W        W93606  24.395  10.554   0.260
40711W        W93607   6.075  19.735   2.312
40712W        W93608  17.296  28.513   7.754
40713W        W93609   2.259   9.326   8.922
40714W        W93610   2.666  27.144   2.241
40715W        W93611  13.989  35.613   1.491
40716W        W93612   6.434  13.356   7.900
40717W        W93613  12.007   6.169   0.772
40718W        W93614  16.775  14.764   3.229
40719W        W93615  18.751   1.934   0.754
40720W        W93616  11.389  18.948   1.376
40721W        W93617   3.787   2.010   1.209
40722W        W93618  35.219  12.393   1.417
40723W        W93619   6.593  28.377   0.295
40724W        W93620  28.247  10.408   2.425
40725W        W93621  24.283  26.983   3.174
40726W        W93622  32.839  22.100   1.605
40727W        W93623   2.377  18.106   2.585
40728W        W93624   8.272   1.873   0.129
40729W        W93625   4.824   0.612   2.078
40730W        W93626  18.449  31.009   9.240
40731W        W93627  33.310   6.912   2.657
40732W        W93628  13.675  28.868   1.866
40733W        W93629  15.160  26.348   1.698
40734W        W93630  14.663  32.483   9.509
40735W        W93631   6.831  29.581  10.043
40736W        W93632  10.523  18.129   9.469
40737W        W93633  11.127  27.203   3.077
40738W        W93634  25.716  22.452   0.911
40739W        W93635   8.247  10.966   2.293
40740W        W93636  13.760  29.923   6.938
40741W        W93637  15.795  20.119   2.539
40742W        W93638  34.357  20.609   3.088
40743W        W93639  12.832   6.923   8.479
40744W        W93640  27.362   6.883   9.820
40745W        W93641   8.616  24.116   0.716
40746W        W93642   0.213  12.067   2.229
40747W        W93643  12.390  31.802   2.050
40748W        W93644  26.868   9.790   8.566
40749W        W93645  25.826  23.694   2.320
40750W        W93646  16.322  26.219   1.835
40751W        W93647   3.645  31.178   7.767
40752W        W93648  34.720   4.953   8.386
40753W        W93649  11.681  10.334   1.194
40754W        W93650  30.765   9.981   7.689
40755W        W93651   8.123  31.043   8.420
40756W        W93652  18.933  32.996   9.295
40757W        W93653  20.731  14.438   3.574
40758W        W93654   1.574   4.848  10.216
40759W        W93655   7.284  19.285   0.690
40760W        W93656  21.528  13.851   9.903
40761W        W93657  35.208  25.130   9.344
40762W        W93658   4.583   4.683   1.364
40763W        W93659   5.458  25.577   0.169
40764W        W93660  13.154   8.568   1.638
40765W        W93661  26.279  12.339   3.524
40766W        W93662  25.754   3.472   2.667
40767W        W93663  34.506  30.491   0.361
40768W        W93664  23.123  25.018   3.039
40769W        W93665  19.513  29.085   2.246
40770W        W93666  27.495   3.267   1.380
40771W        W93667  30.685  35.017   8.954
40772W        W93668  24.072  18.255   8.405
40773W        W93669  22.287  19.482   4.043
40774W        W93670   7.399  12.640  10.200
40775W        W93671  16.652  30.012   3.338
40776W        W93672  30.014  13.091   2.916
40777W        W93673  28.659   8.339   7.983
40778W        W93674  11.345  21.076   7.963
40779W        W93675   0.484  11.424  10.163
40780W        W93676  34.403  17.581   1.458
40781W        W93677  19.696  13.161   0.848
40782W        W93678  13.685  15.305   1.979
40783W        W93679   1.335   9.062   9.538
40784W        W93680  32.759   1.584   7.782
40785W        W93681  35.192  25.139   0.327
40786W        W93682  23.774   4.349   9.780
40787W        W93683  13.208  17.599   1.346
40788W        W93684  34.738   1.198   0.793
40789W        W93685  12.662   9.985   2.399
40790W        W93686  13.485  29.829   2.132
40791W        W93687  16.153  27.396   8.643
40792W        W93688  22.817  30.635   7.974
40793W        W93689  35.404  31.620   8.120
40794W        W93690  30.123  16.361   1.985
40795W        W93691  11.969  23.860   2.200
40796W        W93692  28.428  31.346   7.253
40797W        W93693  30.691  28.935   3.052
40798W        W93694  23.947   5.182   1.513
40799W        W93695  23.043  29.427   2.571
40800W        W93696   1.511   0.837   2.137
40801W        W93697   9.596  14.209   9.499
40802W        W93698   4.307  16.265   7.316
40803W        W93699  26.441  14.590   0.626
40804W        W93700   7.536   0.030  10.081
40805W        W93701  27.406   9.265   9.405
40806W        W93702  18.764  10.690   2.719
40807W        W93703   1.477  30.174   1.036
40808W        W93704   2.570   3.094   8.267
40809W        W93705  10.955  21.584   9.812
40810W        W93706  23.978   0.648   2.338
40811W        W93707  10.253  22.786   2.253
40812W        W93708  17.767  20.606   9.062
40813W        W93709  21.003   4.405   7.409
40814W        W93710  11.411  23.336   2.972
40815W        W93711  14.426  29.209   1.251
40816W        W93712  17.623  14.199   9.173
40817W        W93713  35.029  14.097   8.770
40818W        W93714  27.961  17.248   2.137
40819W        W93715  35.637  31.058   3.388
40820W        W93716  28.376   5.962   8.525
40821W        W93717   7.506  31.266   0.653
40822W        W93718   5.659  30.141   9.733
40823W        W93719  17.990  25.225   2.100
40824W        W93720   2.186  16.741   8.467
40825W        W93721  16.992  34.123   8.577
40826W        W93722   3.587  35.953  10.126
40827W        W93723  28.357  29.857   9.708
40828W        W93724  34.352  14.874   9.834
40829W        W93725  31.965  30.118   8.302
40830W        W93726   0.389   8.975   9.477
40831W        W93727   5.628   1.301   8.391
40832W        W93728  19.782  32.858   9.369
40833W        W93729  21.997  27.841   1.682
40834W        W93730  10.949   0.858   0.298
40835W        W93731   6.691   8.498   2.167
40836W        W93732  31.315  11.352   2.536
40837W        W93733   7.511  35.501   9.900
40838W        W93734  30.170  27.011   1.397
40839W        W93735  27.491  31.892   1.585
40840W        W93736  24.742   5.354   1.606
40841W        W93737  25.511  14.453   1.361
40842W        W93738   9.146  22.223   7.340
40843W        W93739  18.015  34.658   8.767
40844W        W93740   6.699  35.049   8.851
40845W        W93741  20.284  10.029  10.200
40846W        W93742  16.381   7.065   1.678
40847W        W93743  10.528  10.209   2.107
40848W        W93744  19.626  23.147   9.012
40849W        W93745  21.766  22.177   2.065
40850W        W93746  14.846  24.531   7.997
40851W        W93747  18.584  29.704  10.026
40852W        W93748  17.487  21.877   9.542
40853W        W93749   0.084  10.855   0.827
40854W        W93750  24.749  10.288   1.570
40855W        W93751  20.146   5.484   0.628
40856W        W93752  31.720  12.892   2.943
40857W        W93753   0.917  18.448   1.269
40858W        W93754  34.580  24.386   0.620
40859W        W93755   8.588   4.721   9.454
40860W        W93756  22.279  11.328   8.116
40861W        W93757  33.560  22.689   4.124
40862W        W93758   4.265  14.635   8.551
40863W        W93759  25.205  26.823   8.557
40864W        W93760  28.950  16.987   1.563
40865W        W93761  10.172  33.744   0.961
40866W        W93762  35.516  19.231   2.450
40867W        W93763  17.766   3.333   2.205
40868W        W93764  16.898  12.102   0.397
40869W        W93765  22.000  10.130   8.032
40870W        W93766   2.416  13.610   9.680
40871W        W93767   0.931  26.553   2.077
40872W        W93768  25.470  20.857   1.928
40873W        W93769  10.555  10.572   9.803
40874W        W93770  16.262  18.196   1.014
40875W        W93771  29.685  28.872  10.242
40876W        W93772  31.885   1.727   1.463
40877W        W93773  34.891  30.954   8.626
40878W        W93774  31.595  32.615   7.859
40879W        W93775   5.565  10.235   8.046
40880W        W93776  27.405   6.133   0.215
40881W        W93777   8.305  30.858   0.393
40882W        W93778   2.074  26.653   0.475
40883W        W93779  27.806   3.384   1.951
40884W        W93780   2.208  20.989   0.208
40885W        W93781  21.604  28.127   9.957
40886W        W93782   7.770   0.740   2.804
40887W        W93783   3.698  16.158   2.109
40888W        W93784  22.059  15.310   9.208
40889W        W93785   4.807  15.367   3.917
40890W        W93786  21.098   5.286   8.884
40891W        W93787  24.985   8.653   8.342
40892W        W93788   1.580  30.235   9.031
40893W        W93789  32.832  30.175   0.197
40894W        W93790  35.470   5.616   2.237
40895W        W93791  20.181   1.984   2.212
40896W        W93792  34.713  27.672   2.158
40897W        W93793  26.223  21.847   1.661
40898W        W93794  26.333  16.067   0.912
40899W        W93795  18.004   1.026   9.775
40900W        W93796   5.958   2.831   1.077
40901W        W93797  26.075  13.691   1.403
40902W        W93798  24.787  21.990   3.418
40903W        W93799  35.226  31.601   2.635
40904W        W93800  18.103   1.166   8.353
40905W        W93801  19.944  21.543   3.925
40906W        W93802   1.051  30.733   9.720
40907W        W93803   9.780   5.969   1.387
40908W        W93804  17.079  28.381   7.301
40909W        W93805  18.842  13.982  10.082
40910W        W93806   7.220  13.162   0.953
40911W        W93807  33.341  15.088   2.705
40912W        W93808  33.380  28.040   8.235
40913W        W93809  11.679  19.721   2.551
40914W        W93810  34.460  19.419   1.193
40915W        W93811  31.025  17.031   1.886
40916W        W93812  25.979  31.502   9.223
40917W        W93813  28.983  22.093   0.076
40918W        W93814   3.900  33.108   3.030
40919W        W93815  25.796   0.513   7.563
40920W        W93816  12.539  20.232   0.325
40921W        W93817  14.009  13.778   2.847
40922W        W93818  33.321  11.359   1.388
40923W        W93819  23.728  24.661   0.510
40924W        W93820  13.122  17.902   8.201
40925W        W93821  17.993   5.643   2.501
40926W        W93822  32.249  16.254   1.775
40927W        W93823  26.882  31.135   9.676
40928W        W93824   5.013  10.973   1.518
40929W        W93825  26.972  21.438   9.735
40930W        W93826  22.309   7.276   8.427
40931W        W93827   8.168  20.620   0.276
40932W        W93828  29.480  31.207   6.649
40933W        W93829  13.068   9.874   0.671
40934W        W93830  12.720  11.493   9.485
40935W        W93831  15.300  10.181   3.763
40936W        W93832   6.915  26.633   7.422
40937W        W93833  16.106  26.792   0.081
40938W        W93834   7.847   5.499   8.389
40939W        W93835  10.079   1.751  10.011
40940W        W93836  29.204  17.519   1.903
40941W        W93837  20.026   7.646   8.193
40942W        W93838  35.849  29.053   1.256
40943W        W93839  13.940  16.943   9.906
40944W        W93840  11.948  21.916   1.278
40945W        W93841   0.599  32.331   9.148
40946W        W93842   1.503  18.294   7.324
40947W        W93843   9.416   2.851   9.340
40948W        W93844  20.697   5.914   2.893
40949W        W93845   3.618  21.145   8.142
40950W        W93846   4.390  11.813   2.421
40951W        W93847  17.612   3.414   1.589
40952W        W93848   2.858   0.085   2.417
40953W        W93849  20.796  33.881   2.539
40954W        W93850  32.299  16.248   4.025
40955W        W93851   6.710  13.491   9.258
40956W        W93852  12.221   6.126   1.260
40957W        W93853  27.491   9.550   3.180
40958W        W93854   3.382  34.322   0.227
40959W        W93855  11.141  20.017   9.122
40960W        W93856  35.882  19.317   9.469
40961W        W93857   6.209  30.718   1.170
40962W        W93858   1.827  14.568   1.147
40963W        W93859  18.754  34.477   9.477
40964W        W93860   8.449  25.653   0.890
40965W        W93861  21.163  28.859  10.159
40966W        W93862   2.223  26.494   1.956
40967W        W93863  33.042  32.406   2.923
40968W        W93864  23.965   2.348   0.883
40969W        W93865  26.049  15.542   7.650
40970W        W93866  25.684  10.561   8.672
40971W        W93867   4.189   2.000   8.276
40972W        W93868  26.561  20.596   9.080
40973W        W93869  34.152   0.880   9.837
40974W        W93870  27.068   3.165   2.723
40975W        W93871  26.063  24.975  10.187
40976W        W93872  22.191   5.017   8.118
40977W        W93873  25.510  22.517   1.761
40978W        W93874  17.833  30.321   8.369
40979W        W93875   2.879  21.631   0.543
40980W        W93876  19.660   3.094   1.154
40981W        W93877  33.089  11.486   0.086
40982W        W93878  20.989   1.984   9.608
40983W        W93879   8.940  13.560  10.173
40984W        W93880  18.671  23.951   0.311
40985W        W93881  25.679   5.158   7.211
40986W        W93882  18.364  21.507   0.285
40987W        W93883  22.440  26.463   1.479
40988W        W93884  13.902   8.062   8.040
40989W        W93885  15.149  23.046   0.332
40990W        W93886  23.161  34.492   9.829
40991W        W93887   8.303  19.436   0.324
40992W        W93888  26.365  21.563   9.880
40993W        W93889  35.212  32.952   8.389
40994W        W93890  25.417  10.808   9.126
40995W        W93891  35.172  21.733   1.904
40996W        W93892  13.072   1.702   9.307
40997W        W93893  26.016   7.305   2.454
40998W        W93894  10.622  35.948   1.336
40999W        W93895   4.679  23.934   8.530
41000W        W93896  31.798   6.107   8.549
41001W        W93897  21.724  16.029   9.268
41002W        W93898  27.743  29.742   0.796
41003W        W93899  33.529  11.161   1.786
41004W        W93900  15.060  16.081   2.395
41005W        W93901  10.560   2.172  10.031
41006W        W93902  25.008  19.734   1.440
41007W        W93903  19.519  18.690   2.962
41008W        W93904  14.587   4.814   9.981
41009W        W93905  13.940  11.228   1.876
41010W        W93906   7.284  33.863   2.230
41011W        W93907  15.277  14.990   0.807
41012W        W93908   5.735  17.973   1.351
41013W        W93909  12.404  23.691   1.681
41014W        W93910  27.023  35.392   7.802
41015W        W93911  20.731  21.025   3.267
41016W        W93912  10.190   7.993   6.935
41017W        W93913  21.694  19.593   3.803
41018W        W93914  29.368  31.824   0.933
41019W        W93915   1.132  20.452   9.389
41020W        W93916   1.016   5.083   8.740
41021W        W93917  19.147  27.015   0.487
41022W        W93918  10.039  16.519   7.341
41023W        W93919  27.843  20.947  10.103
41024W        W93920  30.967  27.210   8.369
41025W        W93921  29.755  22.314   8.523
41026W        W93922  19.201   9.782   0.444
41027W        W93923  25.811  34.284   2.416
41028W        W93924  33.517   5.320   1.364
41029W        W93925  12.943   6.021   8.936
41030W        W93926  34.697  20.291   0.141
41031W        W93927   7.709   4.562   8.372
41032W        W93928  32.607   4.429   9.394
41033W        W93929  10.266  13.770   9.977
41034W        W93930  27.236  30.904   2.539
41035W        W93931  16.527  15.057   2.455
41036W        W93932  26.047   2.816   8.954
41037W        W93933  13.380  30.058   7.987
41038W        W93934  34.204  32.461   8.699
41039W        W93935  30.444  21.205   6.656
41040W        W93936   5.106  14.502   7.807
41041W        W93937   4.984  14.180   8.329
41042W        W93938   6.805  28.714   9.932
41043W        W93939  22.046  19.123   8.559
41044W        W93940  33.748  33.871   0.553
41045W        W93941  33.178  35.700   2.872
41046W        W93942   2.323  24.245   0.081
41047W        W93943  17.186  16.761   2.562
41048W        W93944   5.474  25.442   9.929
41049W        W93945  28.001  31.142   0.414
41050W        W93946  25.735  22.096   3.444
41051W        W93947  20.896  27.973   2.674
41052W        W93948  27.078  32.023   8.908
41053W        W93949  35.888  35.787   2.993
41054W        W93950  18.932  14.552   8.734
41055W        W93951  34.908  16.001   0.841
41056W        W93952  13.452  12.769   0.263
41057W        W93953  31.680  35.840   9.257
41058W        W93954   3.788  13.603  10.242
41059W        W93955   6.319  13.238   1.218
41060W        W93956  17.643  18.910   0.363
41061W        W93957  35.732  28.542   1.301
41062W        W93958  25.209  26.882   0.732
41063W        W93959  15.661  26.320   7.282
41064W        W93960  30.563   4.975   9.560
41065W        W93961  21.345  31.029   9.214
41066W        W93962  23.516  35.585   9.619
41067W        W93963  35.027  16.468   9.890
41068W        W93964  21.784  13.443   0.279
41069W        W93965  23.817   5.697   1.580
41070W        W93966   1.807  30.944   9.002
41071W        W93967  17.582  24.580   1.661
41072W        W93968  29.335  23.623   3.013
41073W        W93969  18.093  14.461   9.029
41074W        W93970  12.912  34.060   7.844
41075W        W93971  29.806   8.846   2.468
41076W        W93972  12.190  29.631   7.607
41077W        W93973  26.014   6.464   2.042
41078W        W93974  26.615  15.666   8.894
41079W        W93975   4.890  17.970   1.581
41080W        W93976  29.894  16.017   9.005
41081W        W93977  26.102   3.365   8.147
41082W        W93978  15.717   3.777   9.936
41083W        W93979  23.725  24.374   8.740
41084W        W93980  34.812  29.582   8.803
41085W        W93981   2.882  31.134   8.739
41086W        W93982  12.795  18.191   9.806
41087W        W93983  30.708   3.052   2.212
41088W        W93984   1.398   9.593   3.580
41089W        W93985   3.753  34.747   2.369
41090W        W93986   8.300  22.497   8.000
41091W        W93987  31.913  23.123   2.213
41092W        W93988  14.267  10.727   2.715
41093W        W93989  32.824  27.484   3.495
41094W        W93990   8.801  26.373   1.231
41095W        W93991  15.980  19.795   8.367
41096W        W93992  20.822   7.170   1.037
41097W        W93993  24.983   6.341   3.156
41098W        W93994   4.471   4.134   1.385
41099W        W93995   4.957  20.875   0.585
41100W        W93996  22.853  30.509   8.477
41101W        W93997   8.278   8.737   0.930
41102W        W93998   4.057  29.720   9.287
41103W        W93999  22.926   3.460   1.048
41104W        W94000  27.307   0.087   0.665
41105W        W94001  33.922  28.906   8.281
41106W        W94002   8.501  24.010   6.952
41107W        W94003   6.718  11.386   2.598
41108W        W94004   5.769   9.771   7.389
41109W        W94005   8.522  18.852   2.520
41110W        W94006  24.546  32.370   1.049
41111W        W94007   5.052  15.787   8.692
41112W        W94008  25.334  30.772   9.474
41113W        W94009  33.955  31.886   2.171
41114W        W94010   8.664   5.162   8.926
41115W        W94011  23.413  14.510   1.414
41116W        W94012   7.767  25.615   2.398
41117W        W94013  23.019  28.508   3.446
41118W        W94014   7.859  21.130   2.270
41119W        W94015  34.380  24.910   8.340
41120W        W94016  16.225  17.973   2.013
41121W        W94017  30.874  22.052   2.759
41122W        W94018  28.015   1.854  10.104
41123W        W94019  21.242  25.700   3.131
41124W        W94020  27.534  12.322   2.651
41125W        W94021   9.417  25.583   8.052
41126W        W94022  28.556  18.453   9.420
41127W        W94023   9.618  24.770   9.033
41128W        W94024  28.479  35.083   8.884
41129W        W94025  11.812  25.890   7.888
41130W        W94026  30.332   3.380  10.147
41131W        W94027  25.184  25.021   7.948
41132W        W94028   4.768  33.286   2.559
41133W        W94029  30.724  33.052   8.211
41134W        W94030   8.208  22.501   0.873
41135W        W94031  15.849  11.133   7.674
41136W        W94032   1.418  16.047   9.634
41137W        W94033  22.369   6.698   7.697
41138W        W94034  31.751  16.927   0.712
41139W        W94035  34.504  17.695   0.780
41140W        W94036   1.971  13.529   3.965
41141W        W94037  20.526  26.918   1.181
41142W        W94038  22.298  11.546   9.222
41143W        W94039  12.509   7.982   0.927
41144W        W94040   2.231  33.446   1.120
41145W        W94041  18.766  27.273   0.795
41146W        W94042   5.411  13.291   8.028
41147W        W94043   3.416   5.400  10.328
41148W        W94044  26.503  14.137   9.139
41149W        W94045  13.452   2.543   1.679
41150W        W94046  12.270  10.196   2.636
41151W        W94047   4.074   1.499   8.189
41152W        W94048  11.232   6.588   0.495
41153W        W94049   9.632  27.958   9.519
41154W        W94050  15.278  23.161   1.079
41155W        W94051  28.961  33.916   8.460
41156W        W94052   7.703  11.335   1.092
41157W        W94053  17.462  18.462   1.698
41158W        W94054  13.031   5.676   7.964
41159W        W94055  19.554  31.294   9.754
41160W        W94056  27.815  11.425   9.224
41161W        W94057  33.632  11.764   9.457
41162W        W94058  34.064  11.478   1.901
41163W        W94059   2.189   7.299   8.058
41164W        W94060  22.921  18.911   2.909
41165W        W94061  28.922  26.942  10.082
41166W        W94062  19.416  30.603   3.000
41167W        W94063  20.214  22.414   2.997
41168W        W94064  14.686  13.606   8.506
41169W        W94065  27.923  32.454   6.429
41170W        W94066   6.535   1.630   9.124
41171W        W94067   7.404   3.851   0.860
41172W        W94068  24.007   4.161   1.511
41173W        W94069   8.028   3.394   1.208
41174W        W94070  12.305  24.316   8.986
41175W        W94071  30.551   4.850  10.071
41176W        W94072  25.118  19.097   9.029
41177W        W94073  17.878  28.159   9.841
41178W        W94074  17.447  20.098   0.681
41179W        W94075  15.684  14.060   3.313
41180W        W94076  12.132   3.952   8.808
41181W        W94077  21.098   6.251   7.854
41182W        W94078  26.692  25.734   1.384
41183W        W94079  25.117  11.781   9.581
41184W        W94080   4.004   8.643   2.447
41185W        W94081  33.153  13.657  10.176
41186W        W94082  17.084  25.951   8.551
41187W        W94083  18.037  24.532   9.436
41188W        W94084  12.124  28.587   7.410
41189W        W94085  11.946  35.794   1.597
41190W        W94086   9.180  17.758   1.664
41191W        W94087   9.753  10.530   1.992
41192W        W94088  15.004  12.025   8.603
41193W        W94089  22.605  21.996   7.292
41194W        W94090  31.685  30.315  10.171
41195W        W94091  18.771   1.547   7.912
41196W        W94092   6.485   8.169   0.813
41197W        W94093   1.827   2.174   9.937
41198W        W94094  32.166  26.034   2.636
41199W        W94095  30.284  14.186   8.608
41200W        W94096   1.237  15.304   9.090
41201W        W94097  33.595  27.179   0.787
41202W        W94098   7.800  15.022  10.144
41203W        W94099  22.795  17.129   3.319
41204W        W94100  19.561   3.189  10.058
41205W        W94101  28.434  25.533   1.370
41206W        W94102  26.622   5.945   0.543
41207W        W94103  31.230  18.137   2.919
41208W        W94104  24.055   5.817   2.013
41209W        W94105   0.827  31.477   4.090
41210W        W94106  14.182   1.382   7.453
41211W        W94107  25.368  22.788   3.218
41212W        W94108  24.024  28.733   2.906
41213W        W94109   3.661  21.472   1.208
41214W        W94110  35.337   9.234   8.300
41215W        W94111   5.266   1.386   9.829
41216W        W94112  29.155  14.702   1.847
41217W        W94113   1.283   6.136   0.592
41218W        W94114  31.301  22.789   0.878
41219W        W94115  35.043  12.541   9.524
41220W        W94116  19.200  10.033   0.901
41221W        W94117  11.724   6.275   3.404
41222W        W94118  21.835  27.980   2.540
41223W        W94119  21.382  23.419   2.982
41224W        W94120  35.590  29.409   1.538
41225W        W94121  27.915  24.769   9.617
41226W        W94122   5.074  16.167   9.898
41227W        W94123   8.599  30.248   2.242
41228W        W94124   6.856  34.653  10.066
41229W        W94125   1.469  15.611   9.395
41230W        W94126   2.274   9.802   3.496
41231W        W94127  10.084   7.692   2.077
41232W        W94128   5.262   2.339   9.355
41233W        W94129  26.509  11.385   1.666
41234W        W94130  25.661  15.743   9.762
41235W        W94131  23.628  30.970   2.111
41236W        W94132  23.390  11.477   0.628
41237W        W94133   4.032   9.024   1.204
41238W        W94134  18.213  34.741   0.829
41239W        W94135  32.772   0.527   9.140
41240W        W94136   2.086  29.033   9.208
41241W        W94137  11.095  27.498   0.570
41242W        W94138  24.849  23.169   9.463
41243W        W94139  29.773  16.479   8.167
41244W        W94140  35.656   4.952   8.807
41245W        W94141   4.962  34.562   9.589
41246W        W94142  34.693  16.331   7.971
41247W        W94143  32.320  22.954  10.260
41248W        W94144  22.151  35.938   0.218
41249W        W94145  12.016  17.033   1.444
41250W        W94146  34.512  19.828   1.891
41251W        W94147  25.013   3.050   2.144
41252W        W94148  23.513   7.235  10.027
41253W        W94149  18.281  24.317  10.332
41254W        W94150  12.880  35.618   7.977
41255W        W94151  35.539  31.304  10.273
41256W        W94152  34.286  24.391   1.020
41257W        W94153  17.614  32.877   0.551
41258W        W94154  16.378   4.220   9.231
41259W        W94155  11.972  19.709   1.166
41260W        W94156   8.915  12.994   9.418
41261W        W94157  34.921  15.440   3.823
41262W        W94158  26.076  31.050   2.401
41263W        W94159  12.741  31.642   8.872
41264W        W94160  24.371  27.628   0.490
41265W        W94161  27.844  27.794   7.209
41266W        W94162  22.702  18.322   8.643
41267W        W94163  13.086  29.639   2.334
41268W        W94164  24.440  34.577   3.042
41269W        W94165   4.642  33.588   7.715
41270W        W94166  31.617  32.427  10.147
41271W        W94167  11.980  20.757   1.704
41272W        W94168  31.084  15.117   9.039
41273W        W94169   5.446  20.719   2.216
41274W        W94170  14.471   7.176   3.296
41275W        W94171   1.547  18.483   2.669
41276W        W94172  21.472  10.483   1.138
41277W        W94173   5.206  19.501   2.739
41278W        W94174  31.707  26.866   0.119
41279W        W94175  16.293  28.608   0.349
41280W        W94176  14.161  31.651   0.759
41281W        W94177  17.596  18.479   1.131
41282W        W94178  28.988  25.877   7.904
41283W        W94179  16.921  32.173   8.360
41284W        W94180   9.241  31.895   2.776
41285W        W94181  14.439   1.834   8.683
41286W        W94182   1.920  12.790   3.268
41287W        W94183  31.182  21.084   6.969
41288W        W94184  32.800  11.979   8.504
41289W        W94185   4.619   1.879   0.238
41290W        W94186   6.406  32.068   7.866
41291W        W94187   7.735  33.242  10.229
41292W        W94188  14.328  27.014   0.613
41293W        W94189  27.744  25.772   8.778
41294W        W94190  10.801  27.468   9.955
41295W        W94191   5.841   3.866   0.577
41296W        W94192  14.560  14.143   7.477
41297W        W94193  30.298  12.330   7.115
41298W        W94194  30.326  35.208   8.122
41299W        W94195  31.484   6.660   7.967
41300W        W94196   6.035  22.116   8.293
41301W        W94197   5.307  21.984   7.801
41302W        W94198  24.107  32.325   7.841
41303W        W94199   8.997  11.350   9.669
41304W        W94200   0.954   0.182   0.943
41305W        W94201  20.394  26.411   3.413
41306W        W94202  10.922  24.164   8.433
41307W        W94203  20.102   2.110   8.632
41308W        W94204  32.601   0.700   8.733
41309W        W94205   7.981   3.424  10.237
41310W        W94206  19.369  35.087   1.243
41311W        W94207   7.477  20.521  10.322
41312W        W94208  17.693   0.316  10.293
41313W        W94209  21.907  24.839   2.488
41314W        W94210  25.958  33.902  10.145
41315W        W94211  16.840  32.574   0.430
41316W        W94212  31.731  11.545   1.813
41317W        W94213  25.745  32.767   9.586
41318W        W94214  18.176  17.140  10.058
41319W        W94215  27.342  30.943  10.167
41320W        W94216  13.805  26.540   8.608
41321W        W94217   1.289   4.985   9.695
41322W        W94218  31.722  12.042   2.007
41323W        W94219  29.162  16.690   1.113
41324W        W94220  34.142  14.697   9.075
41325W        W94221  28.769  30.684   0.126
41326W        W94222  16.073   6.337   3.088
41327W        W94223  20.315  14.751   9.036
41328W        W94224   9.746  22.401   1.764
41329W        W94225  18.915  15.168  10.135
41330W        W94226  25.209   5.113   9.577
41331W        W94227  12.431   8.622   0.535
41332W        W94228  35.230  33.405   8.132
41333W        W94229   1.670  34.242   3.840
41334W        W94230  35.113  23.603   3.442
41335W        W94231  28.146  23.697   0.123
41336W        W94232  15.692  20.899   1.794
41337W        W94233  30.616  17.589   8.490
41338W        W94234  23.731  34.097   7.517
41339W        W94235   3.784  33.221   1.329
41340W        W94236   2.358   3.439   3.113
41341W        W94237  26.002  33.273   1.312
41342W        W94238  29.172   9.163   3.547
41343W        W94239  32.858   6.892   2.170
41344W        W94240  14.963   8.435   0.718
41345W        W94241  24.070  18.253   3.537
41346W        W94242  26.003  33.859   9.029
41347W        W94243  17.298  26.977   8.612
41348W        W94244  34.016  12.048   0.002
41349W        W94245   9.825   9.603   8.729
41350W        W94246  24.570  14.773   1.832
41351W        W94247  28.963   1.393   1.914
41352W        W94248  19.400  29.322   9.678
41353W        W94249  24.818   8.673   9.585
41354W        W94250  14.520  35.372   2.292
41355W        W94251   9.618  11.359   0.042
41356W        W94252  19.481  14.621   0.413
41357W        W94253  31.583  29.263   3.078
41358W        W94254  23.309  15.579   9.585
41359W        W94255  16.551  15.378   2.028
41360W        W94256   4.206  23.385   1.705
41361W        W94257  11.364  20.597   0.570
41362W        W94258  15.309  13.188   1.431
41363W        W94259   6.991   6.027   3.371
41364W        W94260  17.965  28.089   2.274
41365W        W94261   5.459   3.869   9.596
41366W        W94262  31.507  26.828   1.256
41367W        W94263  25.963   2.505   1.490
41368W        W94264  14.568   6.647   9.713
41369W        W94265  10.238   3.998   8.534
41370W        W94266  15.924  30.475   0.999
41371W        W94267  31.676  32.125   2.967
41372W        W94268   8.658  29.807   9.071
41373W        W94269  21.313   9.881   8.607
41374W        W94270  10.538   7.075   1.094
41375W        W94271  25.099  32.172   9.048
41376W        W94272   0.603  23.215   0.318
41377W        W94273  19.564  19.028   3.300
41378W        W94274  12.143  14.453   9.567
41379W        W94275   4.096  10.173   2.024
41380W        W94276  13.928  17.793   1.636
41381W        W94277  19.530  20.043   9.617
41382W        W94278  18.506  10.400   2.388
41383W        W94279  31.768  33.929   9.759
41384W        W94280   1.866  16.541   1.450
41385W        W94281  12.820   0.240   2.611
41386W        W94282  23.059  10.380   3.077
41387W        W94283  30.026  32.321   8.466
41388W        W94284  15.687  14.317   1.071
41389W        W94285  12.518   9.057   2.465
41390W        W94286  11.211   7.198   9.662
41391W        W94287  12.732  26.572   2.151
41392W        W94288  27.631  34.665   1.307
41393W        W94289  27.339  28.946   8.365
41394W        W94290   0.830  32.397   4.149
41395W        W94291  26.820  16.256   7.714
41396W        W94292  14.040   8.159   0.168
41397W        W94293  25.237  10.453   8.736
41398W        W94294  19.032  23.686   7.909
41399W        W94295  28.252   0.272   3.552
41400W        W94296  12.793  18.779   1.500
41401W        W94297  30.388  19.903   9.815
41402W        W94298  31.430  19.750   1.089
41403W        W94299  23.616  10.432   2.201
41404W        W94300  26.450   1.944  10.324
41405W        W94301  31.837  21.415   1.402
41406W        W94302   9.000   1.841   0.484
41407W        W94303  16.452  15.986   9.061
41408W        W94304  15.962  23.383   9.115
41409W        W94305   4.024   8.555  10.238
41410W        W94306  33.653  34.429   7.146
41411W        W94307  21.626  25.864   1.171
41412W        W94308  34.020   0.655   0.302
41413W        W94309  25.571   7.660   7.020
41414W        W94310  29.790  19.273   9.753
41415W        W94311  25.195  12.583   8.322
41416W        W94312   1.872   6.239   1.894
41417W        W94313   9.476  14.460   8.991
41418W        W94314  18.225  21.310   9.411
41419W        W94315  21.317  33.662   0.834
41420W        W94316  20.941  26.658  10.288
41421W        W94317  34.690  29.359   1.778
41422W        W94318   9.415   7.558   1.402
41423W        W94319  33.565   6.080   7.917
41424W        W94320  19.454  16.115   2.576
41425W        W94321  25.393   6.977   8.705
41426W        W94322  19.825  35.847   2.316
41427W        W94323  24.170  14.966   1.194
41428W        W94324   7.609  17.575   8.898
41429W        W94325   6.876   2.047   8.984
41430W        W94326  14.179  21.477   8.793
41431W        W94327  19.453  25.813  10.211
41432W        W94328  24.564   1.523   8.496
41433W        W94329  25.552  23.645   9.517
41434W        W94330  31.263  11.098   3.502
41435W        W94331  35.630  29.112   2.853
41436W        W94332   1.710  22.196   2.237
41437W        W94333  19.504  16.776   2.958
41438W        W94334  12.522  19.096   9.335
41439W        W94335   6.813  23.523   2.730
41440W        W94336  34.067  26.031   9.496
41441W        W94337   6.640  32.757   2.990
41442W        W94338  33.935  25.970   8.590
41443W        W94339  15.990   8.780   0.648
41444W        W94340   7.583  13.820   8.677
41445W        W94341  16.290  28.847   0.807
41446W        W94342  20.429  24.215   3.268
41447W        W94343   6.925   9.854   8.560
41448W        W94344  32.804  19.950   0.387
41449W        W94345  22.682  27.796   2.126
41450W        W94346  16.498  27.019   1.766
41451W        W94347  22.308  23.836   9.240
41452W        W94348  11.583  11.058   1.259
41453W        W94349  28.612  15.677   7.576
41454W        W94350   0.896  34.239   2.414
41455W        W94351   5.364  27.549   7.673
41456W        W94352  34.836  30.957   3.149
41457W        W94353  32.612  16.580   8.494
41458W        W94354  16.005  29.838   9.831
41459W        W94355  18.960  34.253   7.993
41460W        W94356   0.027  14.487   0.984
41461W        W94357  28.876  18.176   7.731
41462W        W94358  15.793  18.603   9.796
41463W        W94359  19.509   4.894   0.756
41464W        W94360  27.513   0.577   0.609
41465W        W94361  30.069   1.508   9.381
41466W        W94362  17.315  24.899   9.088
41467W        W94363  28.401   2.074   9.155
41468W        W94364  32.552  11.503   9.449
41469W        W94365  20.667  30.230   7.618
41470W        W94366   2.455  15.511  10.197
41471W        W94367  16.116   4.210   8.304
41472W        W94368  16.268  32.838   8.583
41473W        W94369  19.343  17.863   9.548
41474W        W94370   2.158  28.683   7.435
41475W        W94371  32.088  10.416   9.989
41476W        W94372   1.581   3.070  10.282
41477W        W94373   2.167  13.431   2.831
41478W        W94374  31.583  23.227   1.023
41479W        W94375  16.417  28.263   8.081
41480W        W94376  29.592   1.911   9.345
41481W        W94377  28.259  15.774   9.419
41482W        W94378   2.021   1.511   8.495
41483W        W94379  28.583  27.821   0.894
41484W        W94380   3.883  18.594   2.545
41485W        W94381  30.886  15.178  10.113
41486W        W94382   8.164  23.628   1.624
41487W        W94383  29.525  11.176   1.104
41488W        W94384  15.959   6.934   2.160
41489W        W94385  15.653  15.307   2.452
41490W        W94386   6.403  17.504   1.552
41491W        W94387  16.675  22.361   0.458
41492W        W94388  33.580  14.992   1.413
41493W        W94389   0.562  16.566   9.662
41494W        W94390  15.583  12.825  10.240
41495W        W94391  16.738  35.513   9.292
41496W        W94392  13.748  12.914   8.728
41497W        W94393  29.518  23.289   1.341
41498W        W94394  29.132  15.759   7.987
41499W        W94395  29.920  12.947   1.519
41500W        W94396   2.010  18.500   2.729
41501W        W94397   1.609  29.337   1.358
41502W        W94398  13.806  29.023   9.552
41503W        W94399   8.489  25.985   7.265
41504W        W94400  33.352  19.589   3.683
41505W        W94401  35.693   6.394   2.347
41506W        W94402  24.242   7.811   0.222
41507W        W94403   9.628  31.654   1.989
41508W        W94404   3.910  21.535   1.975
41509W        W94405   0.257  16.978   2.123
41510W        W94406  23.905  30.059   0.985
41511W        W94407  13.364  27.157   2.413
41512W        W94408  20.259   3.448   9.432
41513W        W94409   8.830  17.663   1.340
41514W        W94410  18.485  30.993   0.727
41515W        W94411  35.337   9.189   9.354
41516W        W94412  35.660  34.975   0.313
41517W        W94413  18.948  24.597   2.562
41518W        W94414  13.204  21.377   9.543
41519W        W94415  35.270   9.241   1.923
41520W        W94416  12.226   6.034   0.158
41521W        W94417   9.678   8.971   1.450
41522W        W94418   0.704  31.303   8.204
41523W        W94419  20.270  10.768   8.509
41524W        W94420  11.921  28.950   1.865
41525W        W94421  15.475   9.831   0.416
41526W        W94422  16.759  12.318  10.192
41527W        W94423  23.530  35.477   7.031
41528W        W94424  34.304  31.390   1.790
41529W        W94425  10.759   5.895   0.222
41530W        W94426  35.678  27.832   3.057
41531W        W94427  28.939   7.506   0.150
41532W        W94428  20.683   6.437   2.732
41533W        W94429  34.691   4.234   9.029
41534W        W94430  32.104  23.799   8.542
41535W        W94431  35.516  28.950  10.177
41536W        W94432  33.448  34.185   8.789
41537W        W94433  31.687  30.248   3.149
41538W        W94434  31.771  19.279   1.213
41539W        W94435  23.674   6.611   0.327
41540W        W94436  18.908   7.735   1.855
41541W        W94437   4.672  10.435   0.039
41542W        W94438  21.148  29.842   1.499
41543W        W94439  15.413  22.638   0.505
41544W        W94440   9.706  31.477   7.383
41545W        W94441   5.176  21.489   2.472
41546W        W94442  31.561   7.271   8.883
41547W        W94443  31.130   5.619   8.929
41548W        W94444  32.033   3.164   2.200
41549W        W94445  33.633  29.805   3.141
41550W        W94446  17.139   0.872   9.116
41551W        W94447  26.002  22.767   0.578
41552W        W94448   8.485   3.346   7.037
41553W        W94449   8.626  11.526   9.364
41554W        W94450  26.619   5.559   7.869
41555W        W94451  33.311  22.519   7.716
41556W        W94452  34.666  27.803   3.500
41557W        W94453   6.896  30.464   9.048
41558W        W94454   2.779   3.110   2.516
41559W        W94455  34.273  30.415   9.320
41560W        W94456   9.336  19.335   9.881
41561W        W94457   5.058  14.399   1.550
41562W        W94458   7.945  12.419   0.714
41563W        W94459   3.985  24.844   2.705
41564W        W94460  33.493  21.538   9.677
41565W        W94461  30.981   6.290   3.061
41566W        W94462   6.798  31.304   0.107
41567W        W94463  21.083  10.697   3.048
41568W        W94464  27.545  19.364   2.950
41569W        W94465   6.833  14.168   1.381
41570W        W94466  32.150  21.629   1.893
41571W        W94467  35.553  20.542   3.427
41572W        W94468   1.905   6.944   2.539
41573W        W94469  17.070  25.835  10.286
41574W        W94470  17.791  21.952   8.509
41575W        W94471  28.216  30.954   0.869
41576W        W94472   2.285  22.512   2.267
41577W        W94473   1.245   5.476   9.642
41578W        W94474   0.118  29.568   0.832
41579W        W94475   4.272  25.260   1.457
41580W        W94476  23.109  30.450   2.932
41581W        W94477  17.495  23.641   2.068
41582W        W94478  33.764  20.628   0.880
41583W        W94479  13.777  14.404   8.882
41584W        W94480  10.154  16.244   9.481
41585W        W94481  26.001   5.499   9.145
41586W        W94482   9.499  12.215   8.638
41587W        W94483  28.563  12.582   0.460
41588W        W94484  17.992  30.702   9.118
41589W        W94485  11.530   4.973   8.445
41590W        W94486   3.820  22.426   9.553
41591W        W94487  19.623   2.606   8.305
41592W        W94488  26.430   0.761   8.929
41593W        W94489  22.615  14.068   8.829
41594W        W94490  17.085   4.077   2.177
41595W        W94491  14.687  21.609   8.979
41596W        W94492   9.921   4.924   1.481
41597W        W94493  17.240  12.848   0.405
41598W        W94494  31.833   4.046   2.787
41599W        W94495   7.392  32.761   0.381
41600W        W94496  21.956  17.606   8.180
41601W        W94497   9.473  30.153  10.186
41602W        W94498  10.506  22.186   8.628
41603W        W94499  11.056  17.575   2.611
41604W        W94500  34.376   0.076  10.095
41605W        W94501  22.170  16.346   0.234
41606W        W94502   5.895   6.816   0.939
41607W        W94503   8.298  18.645   3.017
41608W        W94504  12.357  13.054   8.234
41609W        W94505  20.153   0.956  10.313
41610W        W94506  35.969  28.504   2.340
41611W        W94507   1.006  20.603   7.644
41612W        W94508   5.791  34.789   1.264
41613W        W94509  31.888  29.253   2.630
41614W        W94510  27.918  12.586   2.423
41615W        W94511   0.607  22.323   3.877
41616W        W94512  20.382  30.490  10.227
41617W        W94513  11.741  33.633   7.449
41618W        W94514   9.232  20.181   2.318
41619W        W94515  18.052  23.390  10.332
41620W        W94516  21.918  10.610   1.162
41621W        W94517  26.590   3.309   3.739
41622W        W94518  32.799  26.317   9.123
41623W        W94519  20.846  11.191   3.812
41624W        W94520  14.428   9.271   2.861
41625W        W94521   9.227  35.424   1.090
41626W        W94522  25.327  32.976   8.815
41627W        W94523  34.112  22.884   8.928
41628W        W94524   1.372  22.876   3.572
41629W        W94525  24.584  19.399   0.736
41630W        W94526  22.695   9.974   2.115
41631W        W94527  26.446  18.869   3.337
41632W        W94528  22.983  30.464   1.190
41633W        W94529   9.269  24.702   7.891
41634W        W94530  19.207  23.197   7.910
41635W        W94531   1.915   5.551   9.870
41636W        W94532  15.377  10.565   0.975
41637W        W94533  33.151   7.695   9.579
41638W        W94534   3.512  28.913   0.871
41639W        W94535  20.362   0.428   1.628
41640W        W94536  23.782  18.978   1.572
41641W        W94537  30.031  15.491   2.109
41642W        W94538  26.256  20.721   8.562
41643W        W94539   1.376  21.616   9.476
41644W        W94540  33.018   4.836   8.121
41645W        W94541  35.095  13.760   2.136
41646W        W94542  21.654  24.717   3.442
41647W        W94543   2.626  34.889   2.604
41648W        W94544   5.241   1.069   0.619
41649W        W94545  23.085  17.493   0.384
41650W        W94546  25.724  27.414   8.069
41651W        W94547  14.866   9.270   9.165
41652W        W94548  20.350   6.936   0.848
41653W        W94549   0.286  32.989   3.686
41654W        W94550  12.948  14.657   8.091
41655W        W94551  23.598  11.654  10.256
41656W        W94552   4.282   5.847   2.322
41657W        W94553  20.502  32.398   7.713
41658W        W94554   8.376  14.344   8.877
41659W        W94555  10.450  13.240   1.269
41660W        W94556  31.620  24.899   0.436
41661W        W94557  19.842  35.408   1.383
41662W        W94558  12.468   7.929   9.072
41663W        W94559  22.095  16.674   8.119
41664W        W94560   9.300  23.629   1.014
41665W        W94561  19.200  22.547   7.493
41666W        W94562  24.914  21.879   9.492
41667W        W94563  32.087  27.473  10.264
41668W        W94564  21.693  24.109   2.167
41669W        W94565  28.163  34.456   2.896
41670W        W94566   3.803   0.846   3.402
41671W        W94567  26.005  20.082  10.322
41672W        W94568  16.480  17.046   3.256
41673W        W94569  24.542  15.372   1.998
41674W        W94570  31.111  32.898   2.026
41675W        W94571  32.400  21.337   2.184
41676W        W94572  25.491  23.166   0.473
41677W        W94573  13.859  19.645  10.055
41678W        W94574  14.351  34.829   0.167
41679W        W94575  25.700  25.032   1.976
41680W        W94576  20.449  19.516   1.118
41681W        W94577  30.377  19.182   1.204
41682W        W94578  30.169  18.798   0.272
41683W        W94579  29.102  15.282  10.333
41684W        W94580  10.045  12.788   8.160
41685W        W94581  14.562  12.838   9.354
41686W        W94582  19.765  22.292   3.180
41687W        W94583  17.347  31.116   8.241
41688W        W94584  33.694   8.603   8.703
41689W        W94585  31.150   6.984   2.184
41690W        W94586  19.981  15.951   0.357
41691W        W94587  24.373   3.592  10.100
41692W        W94588  13.127  11.775   2.272
41693W        W94589   9.064   5.775   7.585
41694W        W94590  21.291  28.960   2.671
41695W        W94591  21.602   2.197   1.712
41696W        W94592   5.262   8.069   1.444
41697W        W94593  28.891   5.639   8.325
41698W        W94594  30.408   9.897   1.285
41699W        W94595  34.519  11.842   8.741
41700W        W94596  17.573  32.214   8.587
41701W        W94597   1.205  27.557   2.122
41702W        W94598   7.966   2.279  10.301
41703W        W94599  27.242  15.788   2.794
41704W        W94600  30.534  30.312   8.810
41705W        W94601  11.538  18.750   2.116
41706W        W94602  10.582  26.952   2.277
41707W        W94603  10.149  34.928   2.345
41708W        W94604   3.564   0.926   1.821
41709W        W94605   8.212  25.272   0.516
41710W        W94606   5.636  14.314   3.593
41711W        W94607  35.949   0.370   7.869
41712W        W94608   1.914  19.741   9.958
41713W        W94609   1.763   3.828   7.291
41714W        W94610  16.364  28.770   1.460
41715W        W94611   3.134  18.897   1.973
41716W        W94612  33.505  25.879  10.028
41717W        W94613  28.843  33.550   1.080
41718W        W94614  10.947   3.261   0.579
41719W        W94615  19.671  25.511   9.389
41720W        W94616  11.591   4.489   1.061
41721W        W94617  31.442  10.643   9.486
41722W        W94618  21.077   6.302   8.342
41723W        W94619   7.555   7.943   3.383
41724W        W94620  13.072  26.190   2.194
41725W        W94621   9.587   2.779   1.330
41726W        W94622   3.741  31.262   1.515
41727W        W94623  32.873  23.065   1.231
41728W        W94624  22.743   1.354   0.601
41729W        W94625   7.171  22.655   4.123
41730W        W94626   3.147  33.543   9.872
41731W        W94627   2.692   4.010   8.529
41732W        W94628  30.706   4.369   1.992
41733W        W94629   4.713  32.628   3.089
41734W        W94630   9.935  22.327   7.117
41735W        W94631  23.432  15.132   0.070
41736W        W94632  21.064  10.906   9.690
41737W        W94633  34.559  15.212   2.967
41738W        W94634  10.587  11.120   1.975
41739W        W94635  11.362  22.191   2.091
41740W        W94636  12.429  26.719   9.067
41741W        W94637  30.203  26.780   0.822
41742W        W94638  10.462   5.137   9.244
41743W        W94639  15.313   4.702   8.486
41744W        W94640  30.757  21.439   8.531
41745W        W94641  18.600   7.593   9.808
41746W        W94642   2.862  14.901   3.307
41747W        W94643   7.405  27.211   1.218
41748W        W94644  34.066  27.903   0.571
41749W        W94645  29.305  18.801   0.266
41750W        W94646   4.178  34.507   2.181
41751W        W94647  35.633  12.599   8.319
41752W        W94648  35.053  33.486   1.446
41753W        W94649   5.956   6.901   7.869
41754W        W94650  16.453   0.485   2.302
41755W        W94651  29.272  24.165   2.875
41756W        W94652  30.931   5.337   0.022
41757W        W94653  21.462  30.453   8.772
41758W        W94654   9.322   5.345   7.990
41759W        W94655  30.722  19.078   2.223
41760W        W94656  35.861   7.203   8.048
41761W        W94657   8.946  32.278   9.503
41762W        W94658   8.217  22.989   9.649
41763W        W94659  14.721   9.800   0.036
41764W        W94660  20.932   5.330   0.082
41765W        W94661  35.966  29.546   3.822
41766W        W94662  26.301  10.993   2.068
41767W        W94663  26.768  33.596   0.206
41768W        W94664  17.696   0.007   0.421
41769W        W94665  29.513  25.520   8.921
41770W        W94666  16.351  14.573   1.550
41771W        W94667   5.946  31.682   0.627
41772W        W94668  16.051  10.903   1.478
41773W        W94669  32.056  25.595   0.169
41774W        W94670  28.109  23.438   2.359
41775W        W94671   3.057  14.436   9.453
41776W        W94672   6.628  29.178   1.727
41777W        W94673  35.788  22.702   8.427
41778W        W94674  35.525   2.872   2.363
41779W        W94675  34.323   0.929   2.096
41780W        W94676  19.222  21.711   9.505
41781W        W94677  31.530   0.515   9.944
41782W        W94678  22.783  17.616   3.140
41783W        W94679  13.687  21.402   2.355
41784W        W94680   6.331  11.361   9.109
41785W        W94681  31.830  19.302   2.895
41786W        W94682  34.026  30.021   0.785
41787W        W94683  24.232  15.342   7.743
41788W        W94684  29.523  24.697   1.589
41789W        W94685   7.074   7.795   9.307
41790W        W94686  32.154  33.399   9.048
41791W        W94687  31.794  29.581   7.526
41792W        W94688   4.289   6.508   9.258
41793W        W94689  14.134  12.120   2.170
41794W        W94690  30.087  17.257   0.843
41795W        W94691  22.334   2.772   9.318
41796W        W94692  34.291   4.773   8.090
41797W        W94693   1.020  15.356   0.194
41798W        W94694  20.543  27.257   0.349
41799W        W94695   3.707   5.311   0.845
41800W        W94696  20.739  11.476   8.849
41801W        W94697  17.879  18.107   3.226
41802W        W94698  14.122  17.455   0.411
41803W        W94699   8.804   0.391   8.072
41804W        W94700  22.507  15.474   3.857
41805W        W94701  22.406  17.961   3.136
41806W        W94702   6.095   0.808   2.372
41807W        W94703  29.485  17.706   0.160
41808W        W94704  33.009  23.528   0.322
41809W        W94705  33.349  22.728   3.249
41810W        W94706  19.461   3.757   7.511
41811W        W94707  14.179  10.175   1.621
41812W        W94708   4.220   5.434   0.781
41813W        W94709  13.765  15.804   9.791
41814W        W94710   4.934  10.486   2.533
41815W        W94711  19.889   4.756   9.895
41816W        W94712  28.829  24.312   1.379
41817W        W94713  10.934  23.736   0.230
41818W        W94714  17.352   3.381   8.600
41819W        W94715  20.223  27.399   2.713
41820W        W94716   6.590  24.663   1.574
41821W        W94717  32.889  18.074   9.391
41822W        W94718  24.768   3.917   2.447
41823W        W94719  25.496  16.057   0.442
41824W        W94720  32.102   9.534   0.875
41825W        W94721   7.784  30.649   3.566
41826W        W94722   7.031   9.766   1.418
41827W        W94723  14.227  23.416   8.259
41828W        W94724  22.908  16.296   3.242
41829W        W94725  21.508   2.713   0.882
41830W        W94726  32.169   2.713  10.055
41831W        W94727  10.830   6.419   0.235
41832W        W94728   9.051   3.419   7.858
41833W        W94729   2.004  21.026   9.286
41834W        W94730  13.267  25.532   7.002
41835W        W94731   2.709   5.788  10.034
41836W        W94732  34.060   8.511   8.373
41837W        W94733  14.892   1.740   2.964
41838W        W94734   9.154  14.125   8.663
41839W        W94735  16.102   2.087  10.027
41840W        W94736  11.394  15.622   8.298
41841W        W94737  28.210   3.320   0.630
41842W        W94738  25.508   3.597   9.237
41843W        W94739  14.566   8.225   8.355
41844W        W94740  26.976   8.374  10.018
41845W        W94741   8.665   9.909   7.595
41846W        W94742   5.409   7.161   0.938
41847W        W94743   5.454  26.924   7.763
41848W        W94744   3.470  12.298   3.303
41849W        W94745   1.917  29.598   1.617
41850W        W94746  25.605  10.515   2.439
41851W        W94747   6.958  19.845   8.351
41852W        W94748  32.691  10.408   8.574
41853W        W94749  34.452  16.118   0.751
41854W        W94750  21.565  24.202   8.822
41855W        W94751   3.013  15.219   2.294
41856W        W94752  20.741  21.938   2.992
41857W        W94753  22.381  32.284   9.824
41858W        W94754   6.421  21.352   7.352
41859W        W94755   8.845   4.765   8.577
41860W        W94756  33.971  17.364   9.920
41861W        W94757  34.036  12.932   3.017
41862W        W94758  25.854   1.367   8.875
41863W        W94759   0.722  20.637   3.016
41864W        W94760  12.562   2.269   8.973
41865W        W94761  15.220  12.823   0.454
41866W        W94762  22.404  30.410   9.474
41867W        W94763  32.765  26.958   2.697
41868W        W94764  10.812  28.828   8.516
41869W        W94765  26.684   4.927   0.912
41870W        W94766  26.592   8.004  10.033
41871W        W94767  33.066  23.569   2.043
41872W        W94768  10.721   5.883   1.592
41873W        W94769   3.001  22.919   2.849
41874W        W94770  23.917  23.210   2.801
41875W        W94771   1.224  13.611  10.216
41876W        W94772  32.737  24.209   2.865
41877W        W94773  11.387  11.407   9.235
41878W        W94774  26.208  18.999   6.908
41879W        W94775  34.342   4.847   9.670
41880W        W94776  35.194  12.573   0.008
41881W        W94777  31.333  19.952   9.891
41882W        W94778  33.983  16.943   0.973
41883W        W94779  21.446  31.420   8.132
41884W        W94780  17.140  20.662   1.366
41885W        W94781   7.228  24.355   9.022
41886W        W94782  21.926   5.443   8.338
41887W        W94783   6.217  24.532   0.289
41888W        W94784  32.279   5.364   0.642
41889W        W94785   0.143  32.281   9.347
41890W        W94786  24.358  13.844   1.946
41891W        W94787   1.674   0.956   1.092
41892W        W94788   1.632  24.726   1.997
41893W        W94789  33.180  26.160   0.592
41894W        W94790  17.511  27.307   0.827
41895W        W94791  30.236  21.806   1.447
41896W        W94792  14.367  25.962   7.794
41897W        W94793   3.480  35.409   8.631
41898W        W94794   4.261  17.866   0.126
41899W        W94795   7.862  10.883   8.081
41900W        W94796   4.752   5.735   9.047
41901W        W94797   5.926   1.562   0.255
41902W        W94798  13.806  13.040   9.653
41903W        W94799  24.734  16.221   1.630
41904W        W94800  11.442  31.997   0.094
41905W        W94801  32.956  11.542   2.771
41906W        W94802  17.665   6.013   8.549
41907W        W94803  16.444  26.793   0.482
41908W        W94804   4.363  16.792   0.547
41909W        W94805  16.563  26.952   0.908
41910W        W94806  18.824   2.906   0.475
41911W        W94807  33.549  33.904  10.146
41912W        W94808  32.451  31.879   2.531
41913W        W94809   2.731  35.051   8.196
41914W        W94810  31.488  30.620   8.851
41915W        W94811   7.529   5.909   8.858
41916W        W94812  14.917   6.990   7.953
41917W        W94813  24.330   2.443   1.739
41918W        W94814  21.245  28.907   0.762
41919W        W94815  19.334   3.007   2.276
41920W        W94816  20.181   7.729   0.449
41921W        W94817  12.102  30.222   8.088
41922W        W94818  33.555  10.579   8.153
41923W        W94819  25.202  15.577   8.796
41924W        W94820  10.811   2.371   3.017
41925W        W94821  23.050   3.373   8.233
41926W        W94822  31.388   4.565   0.954
41927W        W94823  26.366  18.124   2.794
41928W        W94824  13.522   7.996   8.982
41929W        W94825  14.679  16.163   0.670
41930W        W94826  16.969  23.043   1.834
41931W        W94827  33.447  22.012   8.730
41932W        W94828  11.226  11.519   1.137
41933W        W94829  23.417  24.276   0.082
41934W        W94830  15.516  21.594   7.837
41935W        W94831   1.134  15.716  10.091
41936W        W94832   8.371  29.932   8.243
41937W        W94833  30.156  26.502   2.365
41938W        W94834   6.429  17.535   2.052
41939W        W94835  20.876  30.266   8.824
41940W        W94836  20.355  18.481   3.140
41941W        W94837  34.268  19.669  10.198
41942W        W94838  13.686   7.090   8.934
41943W        W94839   2.480   4.753   7.180
41944W        W94840  21.267  14.294   0.593
41945W        W94841   8.546   1.387   9.714
41946W        W94842  31.895  16.098   8.855
41947W        W94843  20.563   2.715   8.295
41948W        W94844  19.342  34.264   0.034
41949W        W94845  24.323   6.201   8.283
41950W        W94846  11.059   5.021   8.584
41951W        W94847  31.412   8.550   9.967
41952W        W94848   6.692  26.216   8.356
41953W        W94849  35.612  16.346   8.630
41954W        W94850  15.750   4.378   7.528
41955W        W94851  18.236  10.415   3.608
41956W        W94852  33.311   3.801   2.345
41957W        W94853  16.279   4.475   0.219
41958W        W94854  19.116   8.802   0.155
41959W        W94855  17.956  15.485   3.304
41960W        W94856  27.139   8.038   0.092
41961W        W94857   5.171   9.844   8.289
41962W        W94858   1.415  20.036   0.539
41963W        W94859  10.588  23.388   7.300
41964W        W94860   9.935   4.454   2.488
41965W        W94861  20.006  25.040   2.963
41966W        W94862  21.423  16.945   9.095
41967W        W94863  12.179  13.460   8.044
41968W        W94864  20.065  25.906   9.448
41969W        W94865  22.986  32.695   1.786
41970W        W94866   0.183  32.987   9.836
41971W        W94867  30.226   0.415   2.339
41972W        W94868   9.680  18.041   8.340
41973W        W94869  28.537  29.881   1.713
41974W        W94870  18.541  15.800   2.012
41975W        W94871  35.590  16.249   2.195
41976W        W94872   0.163   4.257   3.391
41977W        W94873  23.447  11.395   2.910
41978W        W94874  35.693   2.667   0.313
41979W        W94875   9.715  31.564   9.882
41980W        W94876   6.770  22.692   7.374
41981W        W94877  28.689  20.578   8.756
41982W        W94878  30.428   9.750   2.937
41983W        W94879  33.703  15.703   0.713
41984W        W94880  10.981   5.593   8.467
41985W        W94881  23.098  34.194   1.152
41986W        W94882  34.296  31.485   2.354
41987W        W94883  35.467   9.737   1.750
41988W        W94884  26.632   1.985   8.730
41989W        W94885   4.137  16.875   1.975
41990W        W94886  13.407   5.468   8.445
41991W        W94887  28.576  11.991   7.408
41992W        W94888   7.096  13.557   0.184
41993W        W94889   9.053  30.793  10.074
41994W        W94890  30.058  14.820   8.293
41995W        W94891   5.695   2.371   8.258
41996W        W94892   5.927  31.298   8.499
41997W        W94893   1.459  33.540   2.810
41998W        W94894  12.549   3.306   9.518
41999W        W94895  34.929  19.950   0.492
42000W        W94896   2.235  30.099  10.029
42001W        W94897  30.574  29.356   9.959
42002W        W94898  26.325  12.059   1.710
42003W        W94899   8.534  19.086   0.023
42004W        W94900  24.120  27.625   0.065
42005W        W94901  22.310  17.433   3.197
42006W        W94902  13.428  23.951   0.522
42007W        W94903  12.560  14.265   1.285
42008W        W94904  10.627   4.821   8.883
42009W        W94905   4.793   4.020   8.671
42010W        W94906  32.416   5.713   2.049
42011W        W94907  17.608  14.462   8.006
42012W        W94908  26.746   7.235   9.900
42013W        W94909  28.137   3.478   8.843
42014W        W94910   9.650  19.753   7.978
42015W        W94911  21.887   7.677   3.574
42016W        W94912  13.797  21.306   2.854
42017W        W94913   8.523  12.862   0.250
42018W        W94914   6.160  24.529   3.134
42019W        W94915  29.266   8.415   0.518
42020W        W94916  32.071  20.699   9.845
42021W        W94917  32.643  33.748   1.230
42022W        W94918  24.900  26.560   8.893
42023W        W94919   3.965  24.018  10.293
42024W        W94920  31.911  10.233   1.396
42025W        W94921  33.138  31.462   9.490
42026W        W94922  28.975  32.573   8.568
42027W        W94923  25.962  28.320   8.846
42028W        W94924  23.995  21.230   9.055
42029W        W94925  22.880   4.556   9.759
42030W        W94926  23.898  19.108   3.280
42031W        W94927  17.656  18.649   9.251
42032W        W94928  18.140   5.258   8.561
42033W        W94929  31.310  17.267   1.584
42034W        W94930  14.134  28.799   9.816
42035W        W94931   9.644  35.272   2.816
42036W        W94932   9.087  27.650   9.824
42037W        W94933  20.308  35.607   2.425
42038W        W94934  21.884  35.021   8.563
42039W        W94935  14.823  27.676   9.366
42040W        W94936  21.638  20.664   2.089
42041W        W94937  15.711  27.381   0.192
42042W        W94938   7.157  11.950   8.642
42043W        W94939  32.672  21.441   9.961
42044W        W94940   6.626   4.820   8.249
42045W        W94941  15.163   0.190   0.460
42046W        W94942  16.232   4.981   1.884
42047W        W94943  35.979  10.802   8.435
42048W        W94944  31.439  16.223   3.752
42049W        W94945  24.364   8.455   9.752
42050W        W94946  31.906  14.832  10.144
42051W        W94947  24.471  30.198   1.313
42052W        W94948  13.520  33.597   8.588
42053W        W94949  27.490  34.881   8.148
42054W        W94950   1.490  16.288   0.272
42055W        W94951  33.170  15.350   3.166
42056W        W94952  12.111  17.356   7.892
42057W        W94953  17.881  30.453   2.396
42058W        W94954  10.281  29.110   1.072
42059W        W94955  24.809   3.736   1.549
42060W        W94956   8.512  23.446   1.356
42061W        W94957  22.358   5.699   1.731
42062W        W94958  12.885  17.815   8.983
42063W        W94959   8.218   5.437   9.798
42064W        W94960  15.115  31.776   2.033
42065W        W94961   6.864   4.083   1.475
42066W        W94962  26.736  24.515   9.826
42067W        W94963  32.988  24.486   0.707
42068W        W94964  15.584  34.429   0.432
42069W        W94965   7.686  29.013   0.676
42070W        W94966  20.649   5.418   1.991
42071W        W94967   7.498  21.365   3.266
42072W        W94968  16.720  10.066   9.399
42073W        W94969  27.789  32.012  10.212
42074W        W94970   0.121  20.085   9.651
42075W        W94971  31.134  24.392   8.235
42076W        W94972   4.222  30.560   9.997
42077W        W94973   8.722   6.137   9.326
42078W        W94974  15.349  28.236   2.992
42079W        W94975  32.957   4.257   9.938
42080W        W94976  19.924  35.246   8.995
42081W        W94977  33.226   7.491   0.820
42082W        W94978  23.296  27.823   0.994
42083W        W94979  21.430  25.427   0.244
42084W        W94980   1.089  10.536   2.219
42085W        W94981  28.787   3.193   2.458
42086W        W94982   1.532  27.983   0.225
42087W        W94983   0.703  14.607   9.703
42088W        W94984   9.852  21.192   8.999
42089W        W94985   1.830  30.868   9.952
42090W        W94986  23.253  16.348   0.334
42091W        W94987   9.741  27.756   8.101
42092W        W94988  30.971  24.946   3.355
42093W        W94989  28.494  22.630   3.687
42094W        W94990  18.079   8.495   8.471
42095W        W94991   9.141  35.933   1.150
42096W        W94992  24.530  12.413   2.371
42097W        W94993  18.601  30.872   7.853
42098W        W94994  35.149  28.135   8.883
42099W        W94995  16.631   3.061  10.108
42100W        W94996   2.974  24.155   8.576
42101W        W94997  16.763  35.876   2.932
42102W        W94998  15.014  10.913   3.128
42103W        W94999  31.080   1.933   2.242
42104W        W95000  11.853   5.025   6.871
42105W        W95001  20.489  25.549   7.173
42106W        W95002  26.168  22.382   0.739
42107W        W95003  15.752  30.439   2.411
42108W        W95004   3.249  18.304   7.977
42109W        W95005   2.962  24.956   1.482
42110W        W95006  27.271  28.901   2.748
42111W        W95007   1.504   6.160   1.349
42112W        W95008  16.086  29.891   0.503
42113W        W95009  26.368   7.689   0.613
42114W        W95010  11.762   4.139   8.027
42115W        W95011  13.203   7.081  10.061
42116W        W95012  17.279  32.925   1.538
42117W        W95013  30.006   4.653  10.288
42118W        W95014  14.739   9.885   8.317
42119W        W95015  31.173  16.746   0.352
42120W        W95016  18.437  23.720   8.547
42121W        W95017   5.380  31.670   7.941
42122W        W95018   5.209   5.206   7.152
42123W        W95019  19.558   6.503   2.048
42124W        W95020  12.359  24.174   1.341
42125W        W95021  34.472  25.401   2.482
42126W        W95022  34.855  19.694   2.905
42127W        W95023   1.555  26.289  10.137
42128W        W95024   9.224   4.857   3.212
42129W        W95025  27.191  33.139   8.530
42130W        W95026  21.890  10.081   2.811
42131W        W95027  18.955  19.999   1.602
42132W        W95028  35.696  23.947   9.110
42133W        W95029   9.264  12.219   1.482
42134W        W95030  10.476   5.735   9.099
42135W        W95031  34.402  35.973   0.590
42136W        W95032   2.193  24.944   8.148
42137W        W95033  16.643  11.737   8.347
42138W        W95034  11.709  33.563   0.939
42139W        W95035  23.511  18.470   8.278
42140W        W95036  10.334   6.263  10.304
42141W        W95037  24.763   9.617   3.400
42142W        W95038  29.760  32.607   9.560
42143W        W95039   5.987  16.012   1.786
42144W        W95040   3.101  15.389   1.135
42145W        W95041  35.638   4.402   0.020
42146W        W95042  35.165  11.467   0.941
42147W        W95043  14.516  20.267   0.053
42148W        W95044   2.795  33.546   3.932
42149W        W95045  24.619  29.199   2.654
42150W        W95046   5.814   3.655   7.754
42151W        W95047  34.729  27.538   8.888
42152W        W95048   4.091   1.019   9.330
42153W        W95049  30.516   7.336   8.770
42154W        W95050  12.189   4.148   7.655
42155W        W95051  22.095  26.710   3.769
42156W        W95052  26.317  19.838   9.789
42157W        W95053   3.618  25.389   7.831
42158W        W95054  17.048   7.292   8.443
42159W        W95055  12.626   6.820   3.290
42160W        W95056  12.264   9.524   0.494
42161W        W95057  32.733   7.641   8.285
42162W        W95058   5.984   0.565   9.782
42163W        W95059  27.718  19.493   3.412
42164W        W95060  30.402  10.308   8.413
42165W        W95061  32.015  20.714   8.051
42166W        W95062   5.626   3.604   3.247
42167W        W95063  34.128  31.473   8.362
42168W        W95064   2.041   0.658   1.293
42169W        W95065  18.446  27.382   8.894
42170W        W95066   4.021  21.623   7.818
42171W        W95067  11.586   1.551   8.362
42172W        W95068  11.417  22.473   9.072
42173W        W95069   6.882  16.260   2.304
42174W        W95070  22.085  14.161   3.666
42175W        W95071  19.541   2.275   0.906
42176W        W95072  35.784  29.523   2.069
42177W        W95073   7.094  19.989   7.430
42178W        W95074  26.472  27.833   9.624
42179W        W95075   7.570  26.202   0.630
42180W        W95076   5.653  25.997   1.153
42181W        W95077  22.324  23.749   3.366
42182W        W95078  15.156  16.195   0.367
42183W        W95079   1.689  22.804   0.914
42184W        W95080  25.776  28.044   7.471
42185W        W95081  23.554  28.549   1.513
42186W        W95082   1.349   7.020   0.423
42187W        W95083  27.580  15.778   9.916
42188W        W95084  33.418  19.222  10.102
42189W        W95085  20.742   3.984   2.178
42190W        W95086  32.964  31.777   8.001
42191W        W95087   8.634   3.734   9.460
42192W        W95088   2.927   2.365   8.882
42193W        W95089  17.811  34.963   0.269
42194W        W95090  11.166  33.452   3.528
42195W        W95091  25.292  22.270   0.767
42196W        W95092  30.324  12.863   0.089
42197W        W95093   6.339  18.558   0.523
42198W        W95094  20.839  27.504   7.491
42199W        W95095  11.309  13.495   7.773
42200W        W95096   5.166   3.437   2.325
42201W        W95097   4.290   5.869   2.845
42202W        W95098  26.030  30.287   8.653
42203W        W95099  17.853  16.436   1.213
42204W        W95100  31.180   5.389   0.438
42205W        W95101  11.754   7.865   0.074
42206W        W95102  25.084  13.157   9.170
42207W        W95103  30.548   8.197   9.784
42208W        W95104  28.710  30.670   8.652
42209W        W95105   4.501  27.299   2.697
42210W        W95106   4.788  20.371   8.068
42211W        W95107  35.894  34.001  10.208
42212W        W95108  32.900  11.049   0.048
42213W        W95109   5.308  20.262   0.955
42214W        W95110  10.720  34.708   2.942
42215W        W95111  20.190   1.410   3.937
42216W        W95112  24.876  22.821   1.237
42217W        W95113   8.615  31.655   1.412
42218W        W95114   8.071  17.753   8.777
42219W        W95115  23.925  15.519   8.423
42220W        W95116  20.701  35.731   9.281
42221W        W95117   0.783   8.219   7.906
42222W        W95118  14.377  14.115   0.079
42223W        W95119  13.287  13.448   7.694
42224W        W95120  31.042  34.529   1.924
42225W        W95121  19.554  21.668   0.506
42226W        W95122   8.679   1.733   7.971
42227W        W95123  34.120  24.660   9.957
42228W        W95124   7.258  20.517   9.430
42229W        W95125  16.477  24.695   1.795
42230W        W95126  20.963  29.837   3.760
42231W        W95127   6.830  34.478   0.818
42232W        W95128  14.092  18.929   8.274
42233W        W95129  34.221  27.697   8.569
42234W        W95130  10.738  20.553   2.849
42235W        W95131  17.233   2.778   0.300
42236W        W95132   3.424  35.401   3.465
42237W        W95133  28.858   6.166   8.408
42238W        W95134   2.341  27.321   7.594
42239W        W95135  20.183   7.442   3.082
42240W        W95136   4.780  12.152   2.183
42241W        W95137  18.350  33.347   1.447
42242W        W95138  19.296  11.177   1.735
42243W        W95139  22.254  33.916   9.012
42244W        W95140  12.698  28.347   1.580
42245W        W95141   6.501   3.768   9.179
42246W        W95142   4.409  32.371   8.158
42247W        W95143  23.918   3.212   1.786
42248W        W95144   4.474  21.946   9.143
42249W        W95145   4.068   2.592   0.685
42250W        W95146  14.717  16.566   7.407
42251W        W95147  11.307  24.777   9.009
42252W        W95148  34.472  12.466   3.693
42253W        W95149  10.861  29.892   9.596
42254W        W95150  26.951  22.835   0.680
42255W        W95151  13.469  24.876   2.478
42256W        W95152  26.060  20.610   0.252
42257W        W95153  10.592  34.336   1.766
42258W        W95154  31.848  33.251   8.698
42259W        W95155   1.557  18.947   3.553
42260W        W95156  25.632  23.079  10.302
42261W        W95157  31.975   0.194   1.510
42262W        W95158  28.078   1.857   2.746
42263W        W95159  21.646   5.995   2.913
42264W        W95160  22.578  14.667  10.083
42265W        W95161   6.218   8.467   9.258
42266W        W95162   9.634  32.796   9.066
42267W        W95163  36.013  17.395   3.976
42268W        W95164   1.179  17.792   8.957
42269W        W95165  17.415  23.482   7.835
42270W        W95166  32.338  23.321   2.525
42271W        W95167  22.478  26.957   8.479
42272W        W95168  24.753  13.622   0.186
42273W        W95169   0.259   7.278   8.436
42274W        W95170  35.496   0.574   2.649
42275W        W95171   7.681  31.728   1.782
42276W        W95172  21.957  30.851   0.098
42277W        W95173  11.629  10.622   2.832
42278W        W95174   0.904  18.882   8.299
42279W        W95175  18.463  35.649   9.040
42280W        W95176   0.929  13.743   9.326
42281W        W95177  18.425  15.353   2.144
42282W        W95178   6.219  28.504   3.074
42283W        W95179  30.334  17.072   0.405
42284W        W95180   1.001  18.038   2.658
42285W        W95181  19.736  35.465   0.254
42286W        W95182   4.668  26.801  10.214
42287W        W95183  33.644  13.740   0.838
42288W        W95184   6.553  20.539   0.237
42289W        W95185  30.846  34.462   3.362
42290W        W95186  14.820  28.669   3.034
42291W        W95187  33.870  33.380   9.341
42292W        W95188   2.995  30.107   9.950
42293W        W95189  14.939  23.516   0.288
42294W        W95190  23.510  18.518   1.228
42295W        W95191  12.997  25.904   0.516
42296W        W95192  32.087  27.570   1.211
42297W        W95193  13.409   1.803  10.230
42298W        W95194  21.249  28.559   8.069
42299W        W95195   1.284  27.011   1.557
42300W        W95196  25.203  19.448   9.356
42301W        W95197  35.038  17.706   3.146
42302W        W95198  29.455  26.292   1.592
42303W        W95199  27.929   1.965   0.640
42304W        W95200  27.206   7.272   2.686
42305W        W95201  21.280  14.154   1.785
42306W        W95202  27.747   1.733   1.095
42307W        W95203   6.827   7.073   7.874
42308W        W95204   0.944  30.735   8.503
42309W        W95205  33.638  30.417   9.266
42310W        W95206  21.308  16.991   8.368
42311W        W95207  14.095   7.468   1.163
42312W        W95208  21.748  30.523  10.105
42313W        W95209  18.156  24.925   0.445
42314W        W95210  11.677  35.301   2.855
42315W        W95211   2.803  25.506   7.405
42316W        W95212  27.163  14.157   0.990
42317W        W95213   7.309  29.710   9.736
42318W        W95214  31.539  23.562   7.760
42319W        W95215  14.518  31.460   9.853
42320W        W95216  21.183  23.812   0.079
42321W        W95217  25.354  24.627   0.397
42322W        W95218  14.663   5.079   2.039
42323W        W95219  28.448   9.471   9.713
42324W        W95220   6.821  33.795   0.089
42325W        W95221  21.720  12.010   8.536
42326W        W95222  23.230  21.679   0.972
42327W        W95223  25.268   8.870   0.598
42328W        W95224  10.655  29.550  10.309
42329W        W95225   3.935   3.479   2.180
42330W        W95226  25.400  27.964   9.950
42331W        W95227   6.850   1.070   1.188
42332W        W95228  27.178   1.626   9.680
42333W        W95229  23.133   6.802   1.147
42334W        W95230  19.766  10.764   2.643
42335W        W95231  33.979  17.504   3.594
42336W        W95232  17.133  32.564   1.857
42337W        W95233   5.237   9.297   2.082
42338W        W95234   1.554   8.748   9.842
42339W        W95235   0.843   6.474   8.576
42340W        W95236   6.944  21.491  10.287
42341W        W95237  18.864   4.427   7.946
42342W        W95238  35.619  34.837   1.708
42343W        W95239  25.237  22.528   8.775
42344W        W95240  27.030  11.094   9.711
42345W        W95241  12.296   0.215   1.145
42346W        W95242  33.211  34.380   1.674
42347W        W95243  13.648  34.734   1.998
42348W        W95244  18.226  12.054   0.822
42349W        W95245  26.630  20.090   8.907
42350W        W95246  13.062   6.209   8.050
42351W        W95247  16.974  20.396   9.055
42352W        W95248  17.739  28.233   7.981
42353W        W95249  21.239   7.643   0.054
42354W        W95250  24.485   2.985   0.860
42355W        W95251  32.203   0.753   2.154
42356W        W95252   6.682   2.446   2.226
42357W        W95253   8.087  32.348   8.696
42358W        W95254  31.463  32.912  10.133
42359W        W95255   8.973  24.448  10.139
42360W        W95256  22.114  20.681   0.441
42361W        W95257   6.201   5.183   0.297
42362W        W95258  14.131  21.537   8.314
42363W        W95259  35.624  26.001   1.331
42364W        W95260  29.305   9.870   2.680
42365W        W95261  19.262  26.079   1.148
42366W        W95262   0.363  15.512   9.385
42367W        W95263   2.661  15.886   8.925
42368W        W95264  28.132  19.050   0.975
42369W        W95265   5.522   5.137   3.073
42370W        W95266  16.751  12.430   1.732
42371W        W95267  16.732  21.915   3.210
42372W        W95268  28.405  16.972   1.888
42373W        W95269   6.969  16.161   7.731
42374W        W95270   8.836   2.761   1.921
42375W        W95271  17.763  11.383   3.218
42376W        W95272  21.611  32.651  10.158
42377W        W95273  21.717  19.502   7.728
42378W        W95274  11.993   3.037   7.791
42379W        W95275  31.282  18.499   9.767
42380W        W95276  33.178   7.022   0.377
42381W        W95277  27.611  16.190   8.418
42382W        W95278  31.927  22.047   3.878
42383W        W95279   5.668  35.250   1.783
42384W        W95280  18.866   9.989   2.275
42385W        W95281  32.052  12.065   9.629
42386W        W95282  28.357  20.884  10.138
42387W        W95283  27.264  25.965  10.152
42388W        W95284  25.056  21.061   1.642
42389W        W95285  22.568  34.619   1.315
42390W        W95286   2.114  31.239   8.648
42391W        W95287  30.517  29.691   8.967
42392W        W95288  13.696  32.594   2.287
42393W        W95289  15.429  24.122   9.331
42394W        W95290  21.439   9.049   0.999
42395W        W95291  24.254  19.655   1.120
42396W        W95292  24.910  31.704   0.716
42397W        W95293  30.309  12.694   1.732
42398W        W95294  24.141  14.821   2.087
42399W        W95295  33.866   5.257   2.794
42400W        W95296  32.442   3.677   7.647
42401W        W95297  14.744   9.885   2.127
42402W        W95298  31.701  14.007   8.865
42403W        W95299  20.610   8.254   8.511
42404W        W95300  22.621  15.720   0.508
42405W        W95301  10.934  17.388   1.596
42406W        W95302  23.432  34.798   1.854
42407W        W95303   3.763  31.737   1.010
42408W        W95304   0.222   5.969   9.501
42409W        W95305  14.640  33.669   9.718
42410W        W95306   9.344  34.737   2.087
42411W        W95307   8.794  23.454   7.750
42412W        W95308  30.805   6.534  10.274
42413W        W95309  11.904  22.278   7.641
42414W        W95310  31.599  27.592  10.148
42415W        W95311  22.460  15.373   3.271
42416W        W95312  33.188  13.284   0.585
42417W        W95313  11.036  19.936   8.116
42418W        W95314   9.887  10.860  10.172
42419W        W95315  31.053  32.467   0.847
42420W        W95316  14.588  24.736   8.475
42421W        W95317  28.670   0.038   1.279
42422W        W95318   1.157  30.503   7.704
42423W        W95319  35.652  10.446   1.218
42424W        W95320  26.659  21.157   1.430
42425W        W95321   9.948  14.610   1.554
42426W        W95322  12.851   0.973   7.859
42427W        W95323  16.281  29.411   1.751
42428W        W95324   3.110   9.551   9.143
42429W        W95325  21.870  18.861   3.138
42430W        W95326  10.212  30.073   2.741
42431W        W95327  30.979   1.509   9.396
42432W        W95328   8.945  25.748   8.912
42433W        W95329  23.040  34.590   7.853
42434W        W95330  22.517  13.028   8.708
42435W        W95331  15.348  15.116   1.307
42436W        W95332   5.482  26.987   0.399
42437W        W95333  22.839   7.866   9.813
42438W        W95334  21.338   6.590   1.976
42439W        W95335  24.923  24.995   2.995
42440W        W95336  30.159  24.143   8.861
42441W        W95337  17.807  19.174   9.347
42442W        W95338   2.019  15.469   2.305
42443W        W95339  23.613   8.255   0.446
42444W        W95340  32.275  11.738   0.539
42445W        W95341  27.954  35.047   9.151
42446W        W95342   5.680  31.771   9.754
42447W        W95343  12.484   7.773   8.513
42448W        W95344  29.527  28.374  10.060
42449W        W95345  25.602  24.712   7.754
42450W        W95346  34.762   3.875   1.189
42451W        W95347  15.099  18.557   8.197
42452W        W95348  18.826  26.357   8.865
42453W        W95349  10.378  25.786   9.262
42454W        W95350  18.325   7.826   0.161
42455W        W95351  32.857   1.052   1.467
42456W        W95352  10.102  12.403   0.973
42457W        W95353  29.889   8.419   8.941
42458W        W95354   1.736   8.617   8.902
42459W        W95355   9.139   6.191   0.883
42460W        W95356   8.902  14.698   3.559
42461W        W95357  34.879  36.001   0.271
42462W        W95358  20.704   4.417   1.835
42463W        W95359  32.141  13.320   9.998
42464W        W95360  15.914  13.071   0.204
42465W        W95361  31.781  11.542   7.294
42466W        W95362  20.334   3.600   0.888
42467W        W95363  16.829  10.283   2.483
42468W        W95364   4.267  34.092   1.768
42469W        W95365   8.682  35.073   2.193
42470W        W95366   0.954   8.917   1.439
42471W        W95367   0.340  23.287   0.863
42472W        W95368   7.903  15.493   2.265
42473W        W95369   5.748  34.455  10.224
42474W        W95370  12.776   6.848   1.837
42475W        W95371   4.040   0.326   8.265
42476W        W95372   0.579  19.265   9.434
42477W        W95373  34.306   7.125   3.226
42478W        W95374  12.585  14.811   7.740
42479W        W95375   0.882  30.851   9.012
42480W        W95376   5.504  32.926   1.413
42481W        W95377  24.897   1.315   1.184
42482W        W95378   2.003   4.715   9.747
42483W        W95379  20.187  31.629   3.371
42484W        W95380  34.137   4.054   9.304
42485W        W95381  13.383   3.122   8.203
42486W        W95382  30.043   7.607   8.761
42487W        W95383  20.812   2.090   9.131
42488W        W95384  35.155  15.493   8.562
42489W        W95385  26.586   6.647   1.590
42490W        W95386  10.159  30.278   9.272
42491W        W95387  21.970   5.368   9.349
42492W        W95388   5.926  32.724   9.836
42493W        W95389  30.034   1.161   1.829
42494W        W95390  24.731  26.064   7.656
42495W        W95391   9.005  29.726   2.784
42496W        W95392  21.212   4.039  10.102
42497W        W95393  28.919  32.651   8.068
42498W        W95394  31.980  34.275   7.087
42499W        W95395   2.837  30.165   8.656
42500W        W95396   6.808  27.216   3.049
42501W        W95397  18.728  19.150   2.947
42502W        W95398  25.064   4.625   7.875
42503W        W95399   5.207  26.313   1.220
42504W        W95400  28.574  11.995   1.927
42505W        W95401   9.682  30.669   0.852
42506W        W95402  22.792  22.220   2.558
42507W        W95403   5.286  32.001   1.778
42508W        W95404   9.075  20.929   9.610
42509W        W95405  26.808  10.052   3.949
42510W        W95406   7.925  28.160   8.520
42511W        W95407   8.147   8.535   7.559
42512W        W95408   0.468  24.277   2.866
42513W        W95409   1.645  15.522   1.629
42514W        W95410   9.505  34.533   7.498
42515W        W95411  18.026   8.714   7.657
42516W        W95412   0.578   6.017   8.624
42517W        W95413  15.873  32.785   9.841
42518W        W95414  22.864  32.826   3.042
42519W        W95415  34.965  19.486   3.632
42520W        W95416  15.352  11.613   8.369
42521W        W95417  10.545  21.426   1.310
42522W        W95418  32.580  12.742   3.167
42523W        W95419  20.245  25.367   9.914
42524W        W95420  33.617   5.073   9.123
42525W        W95421  20.234   7.214   8.498
42526W        W95422  19.159  23.346   2.150
42527W        W95423  11.810  24.838   1.366
42528W        W95424  30.919   1.123   9.734
42529W        W95425  20.258  15.329   9.339
42530W        W95426  36.004  17.310   1.753
42531W        W95427  31.942  34.750   0.856
42532W        W95428  27.810  24.871   7.501
42533W        W95429   0.180  10.340   1.321
42534W        W95430  10.988  33.724   1.495
42535W        W95431   4.809  27.162   0.170
42536W        W95432  16.881  30.478   0.743
42537W        W95433  29.678  31.554   0.539
42538W        W95434  21.132  35.724   9.585
42539W        W95435   2.489  13.396   9.061
42540W        W95436  15.030  10.865   0.807
42541W        W95437  28.893   8.810   0.648
42542W        W95438  20.355   5.794   1.307
42543W        W95439  30.297  11.753   2.824
42544W        W95440   6.127  12.057   1.046
42545W        W95441   7.966  18.336   7.514
42546W        W95442  28.603   9.009   1.278
42547W        W95443  24.259  24.340   1.307
42548W        W95444  16.436  27.486   3.066
42549W        W95445  13.002  18.744   2.665
42550W        W95446   2.010  21.731   1.822
42551W        W95447   3.499  30.055   9.291
42552W        W95448  13.086  12.330   8.235
42553W        W95449  27.438  11.011   9.448
42554W        W95450  21.939  35.587   8.562
42555W        W95451  17.230  22.309   3.272
42556W        W95452   1.639  34.527   9.372
42557W        W95453   3.981  26.787   0.006
42558W        W95454   5.538  19.471   1.241
42559W        W95455   1.425  35.131   8.621
42560W        W95456  26.513   7.859   8.248
42561W        W95457  14.307  20.414   8.262
42562W        W95458   8.397  30.285   1.781
42563W        W95459  22.580  24.068   1.662
42564W        W95460  16.042  15.197   8.961
42565W        W95461  22.643  20.990   0.442
42566W        W95462   8.500   0.533   0.570
42567W        W95463  29.224  21.318   8.648
42568W        W95464   0.105   4.906   0.097
42569W        W95465   1.145  23.940   7.850
42570W        W95466  11.107  19.980   2.690
42571W        W95467   7.489  12.055   0.559
42572W        W95468  17.878  20.542   9.812
42573W        W95469  25.723  22.740   8.829
42574W        W95470  26.904   9.238   1.794
42575W        W95471  10.418  29.398   7.254
42576W        W95472   7.156  25.334   2.798
42577W        W95473  13.082   7.402   9.715
42578W        W95474  26.893  28.453   8.889
42579W        W95475  32.957   1.497   1.271
42580W        W95476   7.056  11.708   0.576
42581W        W95477  32.121  11.278   0.400
42582W        W95478  10.770   2.458   7.370
42583W        W95479   2.335   2.938   2.522
42584W        W95480  23.218  32.466   3.779
42585W        W95481  35.786  23.270   9.227
42586W        W95482  21.933  27.082   0.745
42587W        W95483  14.728   0.234   1.255
42588W        W95484  34.036  25.996   3.096
42589W        W95485  20.436  33.712   1.658
42590W        W95486   6.124  23.237   8.933
42591W        W95487  16.142  19.670   1.870
42592W        W95488  27.498   5.676   0.021
42593W        W95489  14.867  23.698   1.781
42594W        W95490   3.758  20.366   7.302
42595W        W95491  23.276  28.814   8.919
42596W        W95492   8.918  24.307   7.614
42597W        W95493  24.656   1.083   7.761
42598W        W95494   4.640  31.878   0.181
42599W        W95495  13.606  16.946   2.001
42600W        W95496  28.428  10.655   2.802
42601W        W95497  13.569   7.190   0.357
42602W        W95498  33.600  27.149   1.677
42603W        W95499  18.330  34.685   8.262
42604W        W95500  32.100  34.045   8.101
42605W        W95501  12.467  23.636   7.883
42606W        W95502   7.252  28.915   7.362
42607W        W95503  27.718   8.218   2.127
42608W        W95504  18.471  32.912   9.481
42609W        W95505  29.333  25.066   2.341
42610W        W95506  20.276   6.823   9.355
42611W        W95507   3.240  22.396   1.853
42612W        W95508  34.987   7.033   1.814
42613W        W95509  21.647  17.421   9.204
42614W        W95510  25.663   5.454   9.926
42615W        W95511   4.051  28.998   8.403
42616W        W95512  21.787   1.835   2.935
42617W        W95513  12.306   1.815   2.700
42618W        W95514  18.911   1.736   1.550
42619W        W95515  17.620  27.718   9.882
42620W        W95516   8.840  14.806   1.964
42621W        W95517  30.590  19.981   9.299
42622W        W95518  21.696  28.987   1.261
42623W        W95519  32.404  26.658   8.975
42624W        W95520  28.467  20.980   0.800
42625W        W95521   7.439  24.979   0.530
42626W        W95522  27.897  35.735   2.192
42627W        W95523  24.429   2.651   2.887
42628W        W95524  14.228  28.324   3.013
42629W        W95525  30.234   6.382   6.940
42630W        W95526  32.481   0.831   7.865
42631W        W95527  11.383  18.503   1.180
42632W        W95528  18.534  32.219   8.834
42633W        W95529  25.593   6.414   0.341
42634W        W95530  10.202  26.373   9.130
42635W        W95531   8.634  28.256   1.836
42636W        W95532  29.816  25.752   0.685
42637W        W95533  24.081  26.800   7.373
42638W        W95534   7.110  17.645   8.936
42639W        W95535   3.004  28.600   0.208
42640W        W95536  26.187  25.952   2.743
42641W        W95537  14.876  21.656   1.746
42642W        W95538  33.827  28.756   0.129
42643W        W95539  19.965  28.251   2.516
42644W        W95540   0.263   8.081   7.955
42645W        W95541   1.196   9.517   9.681
42646W        W95542  35.950   5.723   0.118
42647W        W95543  23.867  12.511   3.522
42648W        W95544  16.397  31.972   1.211
42649W        W95545  27.065   0.636   2.249
42650W        W95546  27.702   4.066   2.891
42651W        W95547  19.948  12.197   9.812
42652W        W95548  15.165  25.653   0.220
42653W        W95549  13.605   9.409   8.670
42654W        W95550  25.671  35.764   9.189
42655W        W95551  19.810   4.191   3.206
42656W        W95552  17.451  25.457   3.540
42657W        W95553  27.016  27.167   7.677
42658W        W95554  10.419  25.477   8.543
42659W        W95555  19.573   9.831   1.180
42660W        W95556  33.186  34.933   2.218
42661W        W95557  33.702  13.215   0.727
42662W        W95558  34.348  10.397   9.994
42663W        W95559   5.641  35.429  10.219
42664W        W95560  29.739   6.235   9.472
42665W        W95561  20.074  17.896   1.476
42666W        W95562  14.871   2.655   8.682
42667W        W95563   5.348  35.047   3.467
42668W        W95564  10.508  31.052   8.770
42669W        W95565  34.355  35.799   2.210
42670W        W95566  12.774   9.001   1.053
42671W        W95567   6.271  27.258   8.605
42672W        W95568  34.712  18.203   3.294
42673W        W95569   9.969  21.136   1.356
42674W        W95570   2.847  14.808   8.367
42675W        W95571  33.298   7.981   0.486
42676W        W95572  17.713  27.691   2.762
42677W        W95573   3.533  18.835   7.301
42678W        W95574   5.896  18.807   0.736
42679W        W95575  24.134  25.967   1.164
42680W        W95576  20.719   1.087   7.368
42681W        W95577  11.135  33.071   2.044
42682W        W95578  14.705   1.704   0.758
42683W        W95579  30.875   2.350   8.161
42684W        W95580  31.564   9.944   3.119
42685W        W95581  34.694   2.311   8.776
42686W        W95582  11.682  20.681   7.086
42687W        W95583  32.098   3.333   8.438
42688W        W95584  11.516  14.453   1.320
42689W        W95585  22.309   2.215   7.384
42690W        W95586  12.641  15.274   1.474
42691W        W95587  19.594  17.472   8.005
42692W        W95588   2.443  11.067   8.166
42693W        W95589  23.616  18.873   2.431
42694W        W95590   4.112  17.012   2.531
42695W        W95591   6.500  20.941   3.030
42696W        W95592  17.781  17.427   1.033
42697W        W95593   3.708  28.634   1.577
42698W        W95594   9.270  23.990  10.150
42699W        W95595  26.246  29.080   0.036
42700W        W95596  11.671  30.652   1.110
42701W        W95597  33.458  31.633   0.354
42702W        W95598  24.182   2.872   0.175
42703W        W95599  27.330   4.260   9.993
42704W        W95600  33.627   9.405   1.010
42705W        W95601  12.783  25.800   8.571
42706W        W95602  12.108  27.347   9.912
42707W        W95603  11.248  35.970  10.286
42708W        W95604  24.805  21.412   2.195
42709W        W95605  22.103  23.902   2.425
42710W        W95606  16.910  10.454   0.936
42711W        W95607  16.733  27.114   2.231
42712W        W95608  11.575  21.674   1.900
42713W        W95609   1.830   5.552   8.950
42714W        W95610  18.554  15.452  10.234
42715W        W95611  16.957   4.506   3.004
42716W        W95612  16.030   3.367   7.588
42717W        W95613  18.562  22.803   9.855
42718W        W95614  26.617  21.954   0.298
42719W        W95615   3.788  24.717   3.470
42720W        W95616  33.373  17.706   2.562
42721W        W95617   1.026   5.191   0.570
42722W        W95618  10.007   5.466   9.393
42723W        W95619  14.639   9.011   0.019
42724W        W95620  35.621  32.037   8.547
42725W        W95621  17.389  12.932   7.695
42726W        W95622   4.796  23.208   9.017
42727W        W95623  31.838  20.556   9.405
42728W        W95624  27.378  33.517   9.319
42729W        W95625  19.811  27.063   0.653
42730W        W95626  35.998  26.267   0.567
42731W        W95627  23.088  10.588   1.003
42732W        W95628  29.884   3.109   1.479
42733W        W95629   0.124   4.306   1.290
42734W        W95630  33.631  34.233   8.167
42735W        W95631  23.594  29.637   3.331
42736W        W95632  29.721   9.589   9.728
42737W        W95633  14.535  10.755   9.742
42738W        W95634  34.704  10.238   2.289
42739W        W95635   7.651   3.513   6.964
42740W        W95636  21.198  18.077   9.842
42741W        W95637  20.561  25.485   7.963
42742W        W95638  17.462  34.602   8.697
42743W        W95639   4.755   4.038   9.244
42744W        W95640   3.184   3.401   1.156
42745W        W95641   9.162  18.716   0.458
42746W        W95642  34.792  30.088   0.525
42747W        W95643   2.843  22.079   9.061
42748W        W95644   0.244  27.625   9.051
42749W        W95645  11.642  17.050   0.462
42750W        W95646  10.058  16.256   2.912
42751W        W95647  24.757   3.011   2.622
42752W        W95648  21.747   5.997   7.749
42753W        W95649   2.073  26.133   8.209
42754W        W95650  24.676  19.630   2.862
42755W        W95651  19.342  33.418   1.080
42756W        W95652  30.711  11.842   3.250
42757W        W95653  32.337  21.437   8.409
42758W        W95654   4.197  21.203   2.616
42759W        W95655   5.281  14.445  10.249
42760W        W95656  20.080  31.159   1.854
42761W        W95657  29.583  34.693   9.715
42762W        W95658   5.813  33.958   8.453
42763W        W95659   8.751   9.340   9.553
42764W        W95660  24.615   9.665   9.477
42765W        W95661  15.015   9.228   1.555
42766W        W95662  34.366  23.715   0.790
42767W        W95663  10.500  16.331   0.352
42768W        W95664  32.160  27.935   2.424
42769W        W95665   1.103  29.828   9.732
42770W        W95666  34.162  25.228   9.101
42771W        W95667  33.954  32.921   9.628
42772W        W95668  20.221  18.107   0.945
42773W        W95669  23.149  10.817   0.096
42774W        W95670   3.486   5.257   9.561
42775W        W95671  23.155  23.507   2.140
42776W        W95672  33.733  18.191   1.222
42777W        W95673   6.947   8.911   8.059
42778W        W95674   3.658  20.952   1.153
42779W        W95675  17.278  23.803   7.462
42780W        W95676  13.991  35.598   9.478
42781W        W95677  21.271  22.649   0.965
42782W        W95678  22.659  20.423   1.248
42783W        W95679   9.826  22.512   6.676
42784W        W95680   8.316  27.336   9.939
42785W        W95681  19.079  29.967  10.135
42786W        W95682  15.626   1.931   2.755
42787W        W95683  23.673  27.357   1.192
42788W        W95684   8.963  21.367   7.484
42789W        W95685  23.000   7.251   2.401
42790W        W95686  33.451  12.186   1.656
42791W        W95687  28.330  32.814   7.890
42792W        W95688   3.749  21.172   7.639
42793W        W95689  32.561  12.784   9.474
42794W        W95690  24.838  21.368   8.092
42795W        W95691  33.130  11.339   8.661
42796W        W95692  30.649   4.803   7.832
42797W        W95693  25.402   5.511   7.430
42798W        W95694  14.757  35.610   6.758
42799W        W95695  20.515   9.480   0.982
42800W        W95696  19.654  24.979   8.559
42801W        W95697  20.326  28.697   2.326
42802W        W95698  29.466  12.488   1.229
42803W        W95699  31.078  20.973   1.879
42804W        W95700  30.185  16.838   8.969
42805W        W95701   5.774  23.246   0.180
42806W        W95702   1.959   7.355   8.941
42807W        W95703  26.141  21.157   7.511
42808W        W95704  34.680  20.472   2.666
42809W        W95705  21.742   6.531   8.959
42810W        W95706   6.428  20.486  10.122
42811W        W95707   3.690  21.302   3.926
42812W        W95708   6.528  21.186   0.779
42813W        W95709   6.534  27.909   9.543
42814W        W95710   5.903  29.957   7.704
42815W        W95711   0.335  30.295   0.803
42816W        W95712  24.618  31.419   9.858
42817W        W95713  35.384  35.712   1.220
42818W        W95714  24.730  11.040   0.399
42819W        W95715  28.232  27.871   8.013
42820W        W95716   8.628  15.158   1.662
42821W        W95717   7.587  31.578   2.828
42822W        W95718  22.279  18.883   1.863
42823W        W95719  17.314  22.549   1.046
42824W        W95720  10.693  18.586   7.918
42825W        W95721  33.530  30.123   0.883
42826W        W95722   7.198   2.602   7.929
42827W        W95723  24.723  11.007   9.680
42828W        W95724   2.907   5.700   8.516
42829W        W95725  27.501  25.462   0.516
42830W        W95726  35.018  26.538   0.470
42831W        W95727  30.838  20.504   1.882
42832W        W95728  24.464   1.450   2.189
42833W        W95729   3.083  27.090   9.325
42834W        W95730  18.069  29.705   0.915
42835W        W95731   1.435  29.829   9.305
42836W        W95732  17.395   0.880   0.693
42837W        W95733  10.164  31.619   7.356
42838W        W95734  27.841   4.550   1.518
42839W        W95735   5.924  20.655   2.175
42840W        W95736  14.477  23.403   2.777
42841W        W95737  33.361   1.378   9.645
42842W        W95738  32.578  14.589   8.747
42843W        W95739  27.236  31.423   9.936
42844W        W95740   0.086  30.585   9.428
42845W        W95741  23.162   7.726   7.691
42846W        W95742  10.730  18.142   0.130
42847W        W95743  30.695  32.998   1.859
42848W        W95744  28.090   9.002   9.135
42849W        W95745   2.990   5.851   2.956
42850W        W95746  23.940   0.393   0.964
42851W        W95747  24.795  27.734   1.419
42852W        W95748  15.464  10.993   8.058
42853W        W95749  32.390  14.243   0.430
42854W        W95750  26.862  21.515   2.223
42855W        W95751  24.302   0.450   2.816
42856W        W95752  13.486   3.759   2.707
42857W        W95753   7.774   2.121   1.076
42858W        W95754  31.214  24.352   9.806
42859W        W95755  28.581   5.616   0.944
42860W        W95756  30.175   5.742   2.144
42861W        W95757  26.853  17.625   7.817
42862W        W95758  21.353  20.682   9.096
42863W        W95759  15.038  29.055   9.295
42864W        W95760  24.323   5.297   1.824
42865W        W95761  10.861  10.476   1.219
42866W        W95762  11.463  22.002   2.981
42867W        W95763  30.863  30.088   3.568
42868W        W95764  34.747  14.389   0.064
42869W        W95765  13.276   7.497   9.062
42870W        W95766  18.534   7.290   0.270
42871W        W95767   3.197  25.773   2.812
42872W        W95768  14.028  31.854   9.687
42873W        W95769   5.050  24.098   9.911
42874W        W95770  28.100  21.557   9.340
42875W        W95771  20.771   1.205   8.053
42876W        W95772  24.747  33.580   8.253
42877W        W95773  13.445  17.324   2.861
42878W        W95774   4.554  31.251   0.047
42879W        W95775   9.389   3.870   8.825
42880W        W95776  12.328  24.818   8.541
42881W        W95777  17.601  29.278   0.552
42882W        W95778  30.356  20.240   2.654
42883W        W95779  12.911   1.711   0.075
42884W        W95780   1.275   4.867   1.606
42885W        W95781  25.910  30.036   0.105
42886W        W95782  28.196  35.525   8.167
42887W        W95783  16.954  31.061  10.272
42888W        W95784   4.654  32.418   4.027
42889W        W95785  19.047  22.251   0.269
42890W        W95786  31.158  16.666  10.203
42891W        W95787   1.894  12.225   9.939
42892W        W95788  20.276   4.165   8.310
42893W        W95789   7.616  33.226   9.253
42894W        W95790  11.539  34.419   8.736
42895W        W95791  28.595  24.663   1.705
42896W        W95792  22.682  24.852   9.319
42897W        W95793  33.947  14.838   0.063
42898W        W95794   0.479  19.724  10.088
42899W        W95795  29.960   1.547   1.054
42900W        W95796  26.733  32.220   2.417
42901W        W95797  19.029   6.210   1.987
42902W        W95798   8.419  18.030   0.643
42903W        W95799  33.117  26.798   3.972
42904W        W95800  12.121  27.666   9.478
42905W        W95801  26.194  25.815   2.198
42906W        W95802   4.428  18.010   0.619
42907W        W95803  17.965  35.271   2.712
42908W        W95804  20.539  10.500   2.932
42909W        W95805   6.639  28.071  10.186
42910W        W95806  28.462  20.302   1.546
42911W        W95807  16.639  33.911   0.706
42912W        W95808  17.576  12.275   1.544
42913W        W95809   5.216   0.718   9.170
42914W        W95810  13.925  15.445   1.220
42915W        W95811  19.929   5.543   9.547
42916W        W95812  18.029   3.858   3.084
42917W        W95813  30.603   9.214   7.342
42918W        W95814  18.267  12.319   1.261
42919W        W95815  34.225  13.312   0.806
42920W        W95816  17.920  26.432   3.529
42921W        W95817  30.644  34.935   0.982
42922W        W95818  28.020   2.290   9.462
42923W        W95819  35.031  22.046   2.891
42924W        W95820   2.812  24.263   2.357
42925W        W95821  10.197  22.393   8.082
42926W        W95822  24.770  15.971   2.835
42927W        W95823  17.740   1.184   0.492
42928W        W95824   0.393  21.179   0.467
42929W        W95825   5.492  15.610   7.826
42930W        W95826   7.081  23.338   7.895
42931W        W95827  17.199   9.373   1.807
42932W        W95828  12.807  13.324   9.471
42933W        W95829  26.633  10.698   1.852
42934W        W95830  20.595   3.189   9.149
42935W        W95831  35.581  23.896   9.945
42936W        W95832  24.684  26.008   0.589
42937W        W95833   0.711  27.504   8.189
42938W        W95834  26.309   0.455   2.946
42939W        W95835  14.165  12.654   9.657
42940W        W95836   1.027  14.450   1.293
42941W        W95837  16.284  10.825   9.162
42942W        W95838   6.724   4.237   7.510
42943W        W95839   4.585  15.878   8.794
42944W        W95840  10.038  23.673  10.320
42945W        W95841  19.595   3.769   1.854
42946W        W95842  24.120  32.045   0.189
42947W        W95843   0.373  22.386   1.107
42948W        W95844  26.426  20.295   9.455
42949W        W95845   4.338  16.564   9.493
42950W        W95846  17.044  10.506   2.880
42951W        W95847  35.007  35.364   7.086
42952W        W95848  33.129  31.112   0.894
42953W        W95849  18.226  18.058  10.327
42954W        W95850   1.427  30.066   7.821
42955W        W95851   1.891  19.873   8.356
42956W        W95852   7.882   2.918   2.302
42957W        W95853  23.672  27.150   8.169
42958W        W95854  16.953  27.730   0.276
42959W        W95855  31.060  34.850   7.821
42960W        W95856   5.634   0.701   9.423
42961W        W95857   7.092   2.815   2.161
42962W        W95858  21.386  34.696  10.027
42963W        W95859   1.554  32.402   3.507
42964W        W95860   5.810  35.672   2.855
42965W        W95861  28.859  15.995   3.997
42966W        W95862  34.516  18.859   9.533
42967W        W95863  12.687  21.170   7.833
42968W        W95864  33.214   1.491   1.644
42969W        W95865   2.154  15.090   9.825
42970W        W95866  27.341  34.093   3.127
42971W        W95867  21.736  20.795   2.550
42972W        W95868  12.948  20.498   0.333
42973W        W95869  32.515   3.257   0.387
42974W        W95870  17.312  25.578   1.270
42975W        W95871  17.598  30.174   7.789
42976W        W95872   8.584  27.673   9.066
42977W        W95873   9.765  21.317   9.839
42978W        W95874  11.949  22.885   0.920
42979W        W95875  26.977  21.423   7.777
42980W        W95876  31.903  13.591   0.120
42981W        W95877  24.664  20.026   1.829
42982W        W95878   5.526  14.919   1.462
42983W        W95879  24.558  33.277   9.906
42984W        W95880  30.059  35.488   0.213
42985W        W95881   8.704  33.240   0.491
42986W        W95882   6.746  14.688   2.877
42987W        W95883  33.134  18.435   0.369
42988W        W95884   3.135  27.667   0.495
42989W        W95885  25.056  10.499   9.484
42990W        W95886  27.248  14.461   8.667
42991W        W95887  19.225  25.646   0.745
42992W        W95888  32.449  26.311   1.664
42993W        W95889   6.553  33.942   1.574
42994W        W95890  19.005   9.262   9.102
42995W        W95891  17.145  20.825   9.842
42996W        W95892  16.092   1.523   9.947
42997W        W95893  34.510   0.181   1.572
42998W        W95894  21.938   9.057   0.825
42999W        W95895   1.723  15.642   9.825
43000W        W95896  19.007   2.406   0.829
43001W        W95897  31.285  25.734   7.506
43002W        W95898  24.789   3.369   9.945
43003W        W95899   2.192  22.014   1.380
43004W        W95900  15.796  19.043   2.745
43005W        W95901  35.920  21.280   1.608
43006W        W95902  28.667  25.551   8.740
43007W        W95903  34.297   5.319   1.383
43008W        W95904  18.755  11.233   9.923
43009W        W95905   4.243   9.360   0.253
43010W        W95906   0.320  16.446   1.295
43011W        W95907  25.693  32.268   6.949
43012W        W95908   3.177  22.646   3.776
43013W        W95909   5.312  34.499   9.975
43014W        W95910  13.798   3.479   9.263
43015W        W95911  17.018  14.677   7.415
43016W        W95912  29.554   5.878   7.204
43017W        W95913  23.699   2.155   3.256
43018W        W95914   5.775   7.238   0.604
43019W        W95915  30.575   5.908   1.239
43020W        W95916  18.873  23.044   7.466
43021W        W95917  21.531  30.294   2.979
43022W        W95918  27.524  28.160   8.372
43023W        W95919  17.362  24.387   2.791
43024W        W95920   2.759   2.688   2.064
43025W        W95921   6.727   8.831   3.421
43026W        W95922  24.196   8.048  10.108
43027W        W95923  18.840   8.375  10.140
43028W        W95924  23.599  18.993   0.248
43029W        W95925  27.641  26.680   1.965
43030W        W95926  19.813  22.419   2.679
43031W        W95927  29.765  11.004   7.994
43032W        W95928   1.134  32.963  10.082
43033W        W95929   5.317  31.239   1.444
43034W        W95930  14.173  10.998   2.282
43035W        W95931   7.527  13.162   0.192
43036W        W95932   2.104   5.202   8.091
43037W        W95933   0.364  18.095   0.359
43038W        W95934   7.719  13.672   7.558
43039W        W95935   4.308  28.630   1.417
43040W        W95936  15.339  11.165   8.553
43041W        W95937   3.441   7.663   0.612
43042W        W95938  17.623  35.895   7.821
43043W        W95939   6.290  11.624   2.298
43044W        W95940  12.614  14.210   0.455
43045W        W95941  19.596   4.898   8.925
43046W        W95942  30.133  17.613   2.416
43047W        W95943  28.233  16.766   7.465
43048W        W95944  26.916  27.969   7.450
43049W        W95945  34.006  35.436   2.105
43050W        W95946  13.610  22.654   1.743
43051W        W95947  29.296   4.116   0.106
43052W        W95948  13.245   3.897   0.014
43053W        W95949   9.409   7.153   8.458
43054W        W95950  16.903  33.387   0.611
43055W        W95951   0.616  30.422   8.599
43056W        W95952  30.503   4.263   1.090
43057W        W95953  12.637  29.972   2.206
43058W        W95954  34.395   3.476   7.865
43059W        W95955  15.241  29.570   0.492
43060W        W95956  28.678  35.759   9.281
43061W        W95957   0.812   8.373   2.513
43062W        W95958   4.956  24.298   9.429
43063W        W95959   4.956   7.726   2.523
43064W        W95960  34.473  19.484   8.511
43065W        W95961   4.253   1.253   1.319
43066W        W95962  20.484  22.041   2.177
43067W        W95963  12.140   6.464   8.425
43068W        W95964  21.682  18.154   9.555
43069W        W95965  31.488   2.310   9.944
43070W        W95966  20.276  17.789   0.443
43071W        W95967  17.719  17.077   1.583
43072W        W95968  11.897  31.802   1.876
43073W        W95969   9.273  10.268   8.757
43074W        W95970   1.889  12.558   2.500
43075W        W95971  20.402  22.180   3.799
43076W        W95972  14.139   4.059  10.053
43077W        W95973  18.462   0.210   1.455
43078W        W95974  21.573  13.028   8.337
43079W        W95975  18.676  27.218   3.485
43080W        W95976  20.240  32.039   1.861
43081W        W95977  17.332  21.231   2.537
43082W        W95978   1.542   5.072   8.844
43083W        W95979   5.001  32.714   1.484
43084W        W95980  25.235  20.693  10.237
43085W        W95981   2.916  18.422   3.515
43086W        W95982  33.193   6.824   8.870
43087W        W95983  27.766   4.214  10.188
43088W        W95984  18.527  34.916   2.171
43089W        W95985  13.393  30.415   9.147
43090W        W95986  16.472  14.258   9.903
43091W        W95987  22.318  27.590   9.311
43092W        W95988  18.450   2.648   2.193
43093W        W95989   7.664  26.870   7.590
43094W        W95990  26.511   9.614   1.696
43095W        W95991  31.778  19.505   3.421
43096W        W95992   9.327  19.774   2.671
43097W        W95993   5.558  27.309   9.388
43098W        W95994  34.262  32.174   1.386
43099W        W95995   1.582  23.203   3.055
43100W        W95996  30.498  29.183   1.627
43101W        W95997   9.724  16.685   3.301
43102W        W95998  17.079  13.559  10.167
43103W        W95999   1.172   7.461   7.800
43104W        W96000  26.142  20.966   1.585
43105W        W96001  30.005  17.049   3.091
43106W        W96002  13.726  21.793   7.226
43107W        W96003  29.131  22.866   1.226
43108W        W96004  17.769  13.054   7.980
43109W        W96005   2.258  35.061   0.943
43110W        W96006   3.382   1.748   2.795
43111W        W96007  27.214  27.996   2.240
43112W        W96008  26.821  11.898   8.603
43113W        W96009  23.270  27.286   0.212
43114W        W96010   2.075  20.765   1.846
43115W        W96011  34.361  25.454   8.265
43116W        W96012   2.423  35.286   8.558
43117W        W96013  23.692  17.555   9.587
43118W        W96014   9.053   8.937   2.546
43119W        W96015   6.276   1.546  10.254
43120W        W96016  27.734  33.224   1.211
43121W        W96017  34.718   5.473   0.123
43122W        W96018  22.057  17.346   1.156
43123W        W96019  25.620  18.528   8.828
43124W        W96020  15.730  27.813   8.018
43125W        W96021  32.429  17.185   9.251
43126W        W96022   0.649  31.377   0.761
43127W        W96023  30.022  31.909   1.309
43128W        W96024  29.915  12.470   0.877
43129W        W96025  10.907  31.918   9.276
43130W        W96026   9.518  17.169   1.827
43131W        W96027  33.457   5.144   2.429
43132W        W96028  35.561  29.348   0.997
43133W        W96029  21.450   2.646   1.963
43134W        W96030  27.344  17.978   9.380
43135W        W96031  20.576  10.818   1.403
43136W        W96032  12.061  11.575   2.008
43137W        W96033   1.413  31.006   0.598
43138W        W96034  10.604  26.109   7.151
43139W        W96035  21.676   5.743   2.542
43140W        W96036  34.932   6.735   0.828
43141W        W96037  29.915  24.152   2.176
43142W        W96038  23.264   6.395   1.470
43143W        W96039  12.438   7.755   2.013
43144W        W96040   9.169  10.804   1.565
43145W        W96041  26.367  25.033   8.845
43146W        W96042  28.362   5.108   0.107
43147W        W96043  25.442   8.090   2.134
43148W        W96044   2.168  12.205   2.192
43149W        W96045   3.743  16.867   1.366
43150W        W96046  22.080  19.052   2.743
43151W        W96047  14.276   2.709   2.758
43152W        W96048  11.739  28.058   1.457
43153W        W96049  22.438   0.319  10.065
43154W        W96050   6.099  19.692   0.799
43155W        W96051   5.796  20.215   1.357
43156W        W96052  26.383  13.527  10.010
43157W        W96053  14.254  31.006   0.245
43158W        W96054  10.477  10.198   1.117
43159W        W96055  32.461   3.740   0.326
43160W        W96056  12.207   7.521   1.637
43161W        W96057   1.816  13.628   1.507
43162W        W96058  16.866  14.545   2.409
43163W        W96059   9.732  28.465   9.644
43164W        W96060   4.171  34.510   1.238
43165W        W96061  32.987  28.433   9.405
43166W        W96062   5.164   0.612   0.450
43167W        W96063  25.408  21.933   9.223
43168W        W96064  23.243   7.085   1.965
43169W        W96065  10.795  27.852  10.267
43170W        W96066  22.832  25.359  10.179
43171W        W96067  22.605   3.804  10.273
43172W        W96068   5.623   1.906   2.518
43173W        W96069   5.632   5.664   3.004
43174W        W96070   4.958  30.561   2.533
43175W        W96071  21.961  15.251   9.827
43176W        W96072  20.187   1.720   8.380
43177W        W96073  30.994  15.367   0.690
43178W        W96074  31.525  20.191   8.449
43179W        W96075   3.206   5.642   3.343
43180W        W96076  16.904  16.037   0.490
43181W        W96077  22.193   9.018   9.003
43182W        W96078  20.175  22.015   1.426
43183W        W96079  24.949  22.336   2.131
43184W        W96080   8.745  14.847   8.103
43185W        W96081   4.515   0.063   1.612
43186W        W96082  35.598  24.497   9.996
43187W        W96083  22.037  14.992   0.474
43188W        W96084  16.058  24.425   0.856
43189W        W96085  25.377  35.832   1.073
43190W        W96086  33.369  14.369   3.472
43191W        W96087  34.120   7.610   9.414
43192W        W96088  26.572  10.075   7.647
43193W        W96089  35.460  26.601   7.870
43194W        W96090  23.154  16.744   1.314
43195W        W96091  18.530  32.470   9.713
43196W        W96092  26.162  27.816   1.152
43197W        W96093   3.629  35.586   1.189
43198W        W96094  25.689  15.398   8.766
43199W        W96095  13.700  34.254   1.859
43200W        W96096  23.611   5.738   9.439
43201W        W96097  17.198  23.759   1.181
43202W        W96098  21.941  24.459   8.581
43203W        W96099  26.756  18.317   3.317
43204W        W96100  22.836  34.246   2.180
43205W        W96101  13.999  35.692   0.802
43206W        W96102  17.592  25.067   2.419
43207W        W96103  11.725  18.302   2.303
43208W        W96104   9.523  31.030   8.919
43209W        W96105  28.134   1.939   8.752
43210W        W96106  10.311  28.899   9.289
43211W        W96107  23.375  29.800   0.686
43212W        W96108  28.694  28.619   8.671
43213W        W96109   3.381  15.124   0.711
43214W        W96110  15.946  14.754   9.836
43215W        W96111  27.191  30.206   9.086
43216W        W96112  29.968   3.790  10.146
43217W        W96113  12.501  35.866   3.125
43218W        W96114  13.024   0.808   1.925
43219W        W96115   9.041  27.298   9.126
43220W        W96116  23.721  31.985   2.203
43221W        W96117  34.259   2.164   7.609
43222W        W96118  32.012  10.550   8.442
43223W        W96119  34.401  12.912  10.097
43224W        W96120  28.923   7.975   8.230
43225W        W96121   0.369  33.147  10.252
43226W        W96122  16.591  20.555   8.558
43227W        W96123  23.518  34.325   3.270
43228W        W96124  23.339   4.585   3.698
43229W        W96125  20.263  11.283   0.473
43230W        W96126  35.966  22.593   9.871
43231W        W96127   6.022  14.096   8.421
43232W        W96128  10.419  20.885   1.573
43233W        W96129   5.428   0.063   7.408
43234W        W96130  25.145  15.709  10.002
43235W        W96131  21.469  16.731   0.572
43236W        W96132  16.735  33.063   9.441
43237W        W96133  30.041   2.387   0.159
43238W        W96134   2.762  18.954   3.427
43239W        W96135  16.908   7.594   1.439
43240W        W96136  21.748  26.461   8.967
43241W        W96137  29.406  29.964   2.234
43242W        W96138  16.684  32.609   7.589
43243W        W96139   5.017  18.918   0.618
43244W        W96140  16.582  14.454   0.554
43245W        W96141   0.246  23.000   9.199
43246W        W96142   7.929  25.215   7.686
43247W        W96143  22.778  32.641   2.250
43248W        W96144  15.797   3.669   2.643
43249W        W96145  19.932  19.900   8.117
43250W        W96146   5.993   2.065   7.865
43251W        W96147   9.696   9.758   0.890
43252W        W96148   4.550  19.012   2.210
43253W        W96149   6.024  17.554   2.443
43254W        W96150  16.495  13.773   0.498
43255W        W96151  16.475  20.651   9.939
43256W        W96152  14.977  22.094  10.334
43257W        W96153  15.026  26.282   9.802
43258W        W96154  12.845   5.672   0.293
43259W        W96155  17.162  18.150   1.353
43260W        W96156  16.443  13.831   1.414
43261W        W96157   0.562  16.248   1.696
43262W        W96158   7.715   1.856   8.221
43263W        W96159   1.790  24.607   0.793
43264W        W96160  34.862  32.123   0.478
43265W        W96161  19.014   7.294   9.805
43266W        W96162  24.479  15.957   9.820
43267W        W96163  35.262  32.485   9.742
43268W        W96164  25.420  35.630   2.878
43269W        W96165   5.698  15.553   9.369
43270W        W96166  34.350  21.694   9.885
43271W        W96167  15.512  14.635  10.141
43272W        W96168  32.133  31.883   3.064
43273W        W96169  34.241  12.075   0.781
43274W        W96170  18.129   9.245   9.173
43275W        W96171  17.680  14.638   9.416
43276W        W96172  20.138  22.411   2.252
43277W        W96173  27.331   0.994   1.939
43278W        W96174  14.592  33.295   1.706
43279W        W96175   5.364   8.421   0.132
43280W        W96176  28.672  22.245   9.791
43281W        W96177  31.883  28.886   1.161
43282W        W96178  28.591   7.095   0.446
43283W        W96179   0.631   8.882   2.360
43284W        W96180  33.124   2.006   3.104
43285W        W96181   2.334  24.678   3.183
43286W        W96182   0.985  32.586   8.966
43287W        W96183  17.590   6.644   8.210
43288W        W96184  12.274  31.876   1.166
43289W        W96185  10.491   3.527   0.380
43290W        W96186   6.760  18.373   9.934
43291W        W96187   3.187  20.383   0.810
43292W        W96188  18.046  13.439   2.565
43293W        W96189  27.097  21.711   8.539
43294W        W96190  15.096  27.292   0.830
43295W        W96191  30.953  28.218   8.525
43296W        W96192  35.872  24.932   9.898
43297W        W96193  20.597  12.748   2.685
43298W        W96194  12.891   1.743   7.559
43299W        W96195  17.304  28.488   2.616
43300W        W96196   9.069  27.025   6.953
43301W        W96197   4.871   1.923   2.386
43302W        W96198  22.067  13.341   8.699
43303W        W96199  23.278  18.895  10.037
43304W        W96200   9.850  19.528   1.416
43305W        W96201  15.728  15.909   0.091
43306W        W96202  10.066  24.661   8.271
43307W        W96203  11.527  20.009   1.303
43308W        W96204  28.055  15.004   9.649
43309W        W96205   4.996   7.275   2.326
43310W        W96206  18.900   0.481   1.591
43311W        W96207  13.031  11.953   9.423
43312W        W96208   1.884  17.498   8.436
43313W        W96209  28.321  31.808   7.193
43314W        W96210  14.547  33.936  10.194
43315W        W96211  27.545   4.907   2.977
43316W        W96212   0.222  30.727   2.911
43317W        W96213   2.276  15.107   3.382
43318W        W96214  19.014  11.486   1.990
43319W        W96215  35.848   9.822   2.015
43320W        W96216  35.536  35.367   9.018
43321W        W96217  18.426  13.095   9.192
43322W        W96218  20.373   6.860   7.062
43323W        W96219   3.397   6.224   3.029
43324W        W96220  14.073  12.515   1.195
43325W        W96221   3.678  26.354   8.387
43326W        W96222  17.030  19.934   3.225
43327W        W96223  21.458   3.805   9.007
43328W        W96224  20.935  11.431   8.290
43329W        W96225  29.873  15.843   0.062
43330W        W96226  10.926   3.760   0.570
43331W        W96227   2.301  32.300   8.933
43332W        W96228  30.912  34.683   9.183
43333W        W96229  25.633  27.263   3.334
43334W        W96230  24.811   5.630   2.405
43335W        W96231   3.113  30.028   2.937
43336W        W96232   0.042  29.795   3.365
43337W        W96233  22.101  32.927  10.302
43338W        W96234  26.066  14.586   9.113
43339W        W96235  23.541   4.089   9.311
43340W        W96236   2.641  33.209   2.061
43341W        W96237  14.025  28.419   1.265
43342W        W96238   7.309  25.214   1.453
43343W        W96239  30.615  28.446   0.577
43344W        W96240  13.407   3.612   7.916
43345W        W96241  10.412  25.900   0.561
43346W        W96242  34.495  18.454   2.109
43347W        W96243  18.039  24.741   7.586
43348W        W96244   4.472   8.212   7.956
43349W        W96245   9.624   6.739   8.111
43350W        W96246  31.777   0.941  10.126
43351W        W96247   6.017  23.650   7.628
43352W        W96248   1.707  11.893   8.439
43353W        W96249  19.879  32.172   9.596
43354W        W96250  21.305   1.652   2.406
43355W        W96251  26.640  29.225   2.930
43356W        W96252  11.770   2.233   0.250
43357W        W96253  16.499  29.410   7.949
43358W        W96254  34.788  30.303   8.105
43359W        W96255  17.321  25.896   1.664
43360W        W96256  25.153  28.104   1.960
43361W        W96257  10.574  30.616   7.515
43362W        W96258  20.666  17.523   8.841
43363W        W96259  18.501  23.814   2.689
43364W        W96260  33.199   1.728   2.577
43365W        W96261   0.133  28.263   3.590
43366W        W96262  12.938   9.828   1.537
43367W        W96263  10.554  18.066   0.712
43368W        W96264   2.336   6.257   7.628
43369W        W96265  22.922  22.171   1.204
43370W        W96266  18.632   0.042   1.922
43371W        W96267   9.138   5.490   9.735
43372W        W96268  24.710   3.184   9.136
43373W        W96269  22.139  22.937   8.232
43374W        W96270   2.391   2.430   3.349
43375W        W96271   8.911  21.574   0.091
43376W        W96272   7.770   7.578   1.197
43377W        W96273  12.980  19.460   8.628
43378W        W96274   7.120  12.241   2.717
43379W        W96275  14.988  31.507   0.491
43380W        W96276   4.011  22.744   8.496
43381W        W96277  28.433   8.013   0.951
43382W        W96278   8.988   0.444   3.048
43383W        W96279   1.650  35.024   9.441
43384W        W96280  15.819  31.277   1.479
43385W        W96281   3.130  21.355   8.998
43386W        W96282  17.617  18.224   9.616
43387W        W96283  32.794  14.961   3.081
43388W        W96284  10.389  24.075   8.870
43389W        W96285   0.266  32.046   8.629
43390W        W96286  10.546  17.905   8.755
43391W        W96287   8.938  33.603   1.754
43392W        W96288  27.762   0.387   1.527
43393W        W96289  22.421  25.358   2.560
43394W        W96290   8.529  30.249   9.185
43395W        W96291  33.940  29.889  10.166
43396W        W96292   3.559   9.246   2.513
43397W        W96293  25.437   6.441   2.291
43398W        W96294  23.166   4.474   9.123
43399W        W96295  16.075   1.630   0.079
43400W        W96296   1.405  26.453   9.260
43401W        W96297  31.241  14.678   9.347
43402W        W96298  22.626  33.286   2.980
43403W        W96299   3.786  27.187  10.106
43404W        W96300  25.652  25.538   9.350
43405W        W96301  35.040  23.594   9.887
43406W        W96302   2.270   6.001  10.005
43407W        W96303  15.809  33.544   2.177
43408W        W96304  29.576  20.554   7.172
43409W        W96305  21.231  20.606   0.721
43410W        W96306  27.128  11.669   0.926
43411W        W96307  14.508  14.934   3.854
43412W        W96308  24.070  30.924   7.537
43413W        W96309   0.015  35.802   1.898
43414W        W96310   7.578   5.665   7.066
43415W        W96311  26.205   1.032   7.620
43416W        W96312  11.617  24.088   8.612
43417W        W96313   6.160  29.881   0.432
43418W        W96314  25.868  34.649   9.029
43419W        W96315   4.168  11.193   1.221
43420W        W96316  31.446  18.046   8.556
43421W        W96317   6.115  15.354   9.072
43422W        W96318  13.896  17.120   8.091
43423W        W96319   0.654  12.481   1.287
43424W        W96320  29.096  20.473  10.151
43425W        W96321   6.666   0.468   7.415
43426W        W96322  11.481  27.782   8.907
43427W        W96323  17.050  15.091   8.232
43428W        W96324  14.404  18.503   1.110
43429W        W96325   6.791  10.539  10.302
43430W        W96326  34.013   5.242   9.619
43431W        W96327   8.368   5.339   0.469
43432W        W96328  32.707   5.545   0.856
43433W        W96329  18.407  17.547   8.555
43434W        W96330   4.365  27.003   2.253
43435W        W96331  17.113  27.112  10.020
43436W        W96332  20.119  16.238   9.280
43437W        W96333  26.646  27.480   1.965
43438W        W96334  15.575   6.842   1.062
43439W        W96335   2.388   1.991   8.279
43440W        W96336   0.650  22.947   2.277
43441W        W96337  29.683   3.746   7.865
43442W        W96338  34.148  18.198   1.562
43443W        W96339  16.631  16.816   9.662
43444W        W96340  12.512  35.864   6.618
43445W        W96341  33.757  32.304   7.313
43446W        W96342  27.810  15.345   1.735
43447W        W96343  17.622  16.094   0.904
43448W        W96344  13.527  27.787   0.480
43449W        W96345  21.519  27.299   7.834
43450W        W96346  35.238  24.065   1.110
43451W        W96347   6.190   4.716   2.440
43452W        W96348   7.543  34.621  10.044
43453W        W96349   9.352  20.851   7.371
43454W        W96350  23.206  14.807   2.196
43455W        W96351  27.938   4.856   0.687
43456W        W96352  33.442  31.447   0.900
43457W        W96353   1.196  29.718   8.094
43458W        W96354  14.426  11.479   9.780
43459W        W96355  15.286  23.900   1.563
43460W        W96356   1.921  25.729   4.086
43461W        W96357   5.306   7.765   2.899
43462W        W96358   2.654  26.887   7.472
43463W        W96359  35.031   2.754   2.417
43464W        W96360  14.735  30.822   2.606
43465W        W96361   0.575   5.019   9.197
43466W        W96362   7.557  19.387   9.530
43467W        W96363  29.685  35.959  10.270
43468W        W96364  25.370  29.454   7.956
43469W        W96365  15.371  15.055   8.089
43470W        W96366  31.870  25.850   9.332
43471W        W96367  28.961   1.572   8.483
43472W        W96368  29.139   7.546   7.127
43473W        W96369   7.391  27.765   8.011
43474W        W96370   4.053  11.203   9.112
43475W        W96371  30.448  19.293   7.630
43476W        W96372  26.210  12.319   2.650
43477W        W96373  26.879   4.488   1.701
43478W        W96374  32.048  14.661   3.055
43479W        W96375   0.458  20.495   1.601
43480W        W96376  33.041  21.121   1.312
43481W        W96377   7.575   5.737   9.301
43482W        W96378  23.204  27.750   1.849
43483W        W96379  33.302  17.236   0.221
43484W        W96380  14.584  15.270   8.119
43485W        W96381   7.055  22.971   2.120
43486W        W96382  20.554  23.133   2.648
43487W        W96383  21.074  31.643   8.572
43488W        W96384  23.342   9.723   2.560
43489W        W96385  33.896   3.163   9.485
43490W        W96386  21.182  33.801   8.404
43491W        W96387  22.952   0.547   9.039
43492W        W96388  22.322  21.890   2.650
43493W        W96389  24.071  23.614   1.327
43494W        W96390  34.190  21.789   8.213
43495W        W96391  14.680  21.234   0.605
43496W        W96392  31.481   0.260   3.343
43497W        W96393  20.049  13.285   2.401
43498W        W96394  21.934  15.924   0.326
43499W        W96395   6.744  15.100   7.880
43500W        W96396  17.176  17.159   1.952
43501W        W96397  26.189  19.347   1.674
43502W        W96398  25.094  27.128   0.285
43503W        W96399   5.840  30.224   1.324
43504W        W96400  26.346  16.001   0.366
43505W        W96401  14.800  24.056   9.760
43506W        W96402   6.167  17.206   7.357
43507W        W96403  21.051  21.404   7.421
43508W        W96404   2.563  18.863   0.870
43509W        W96405  16.080   8.507   8.096
43510W        W96406  34.117   9.001   9.452
43511W        W96407  30.841  23.906   2.259
43512W        W96408  28.331  30.212   0.295
43513W        W96409  15.935  32.360   8.842
43514W        W96410   2.465  19.492   0.922
43515W        W96411  25.506  28.335   0.998
43516W        W96412  26.821  25.847   9.815
43517W        W96413  16.621  20.636   2.576
43518W        W96414   1.882  32.044   9.502
43519W        W96415  17.364  24.728   0.197
43520W        W96416  20.296  18.079   2.742
43521W        W96417   0.191  16.712   7.690
43522W        W96418  35.536  19.046   8.664
43523W        W96419  27.049  29.068   1.289
43524W        W96420   9.624   7.536   8.243
43525W        W96421  19.775  23.384   1.451
43526W        W96422   1.381  11.199   9.863
43527W        W96423   2.778  33.751   2.967
43528W        W96424  29.222   7.597   1.967
43529W        W96425  11.866  35.487   1.967
43530W        W96426  10.917  19.052   8.080
43531W        W96427   9.203  29.270   1.066
43532W        W96428  14.995  11.070   8.110
43533W        W96429  29.445  30.222   3.272
43534W        W96430  24.382   8.596   0.344
43535W        W96431  15.042  34.771   2.818
43536W        W96432   3.873  15.180   2.233
43537W        W96433  19.329  14.045   7.644
43538W        W96434  10.125  21.779   9.034
43539W        W96435  20.151  11.756   0.514
43540W        W96436  19.888  13.304   1.558
43541W        W96437  14.223   0.313   0.012
43542W        W96438   1.675  11.903   1.368
43543W        W96439   2.114   6.447  10.152
43544W        W96440  34.071   1.826   3.085
43545W        W96441   1.726  24.972   2.437
43546W        W96442  22.560   2.341   2.701
43547W        W96443   2.648  13.654   1.113
43548W        W96444   6.269  28.873   1.480
43549W        W96445   5.046  19.472  10.240
43550W        W96446   9.140  14.213   2.478
43551W        W96447   0.518  14.685   1.704
43552W        W96448   1.664  29.187   6.746
43553W        W96449  34.062  21.199  10.081
43554W        W96450   7.781  32.786   2.816
43555W        W96451  18.712  27.551  10.291
43556W        W96452  33.561  25.122   8.302
43557W        W96453  13.262   5.999   0.563
43558W        W96454  23.163  33.168   8.443
43559W        W96455  18.158  19.812   1.181
43560W        W96456  31.210  27.771   9.241
43561W        W96457  35.345   3.339   0.780
43562W        W96458  12.329  23.621   0.476
43563W        W96459  28.833   5.224   2.395
43564W        W96460  13.879  17.854   2.330
43565W        W96461  34.524  35.466   1.771
43566W        W96462   8.256  35.272   0.341
43567W        W96463  31.656  17.371   7.384
43568W        W96464  10.754   2.043   8.993
43569W        W96465  11.163  11.182   3.391
43570W        W96466   1.041  33.171   3.279
43571W        W96467  31.138  31.486   8.917
43572W        W96468  20.448  16.796   3.773
43573W        W96469   3.083  18.890   9.679
43574W        W96470   9.420  28.806   1.302
43575W        W96471  22.260  18.130   8.727
43576W        W96472  27.220  23.779   8.196
43577W        W96473  24.318  28.699   9.032
43578W        W96474   4.025  29.193   9.440
43579W        W96475   6.764  32.181   0.670
43580W        W96476   0.681   9.954   0.101
43581W        W96477  27.475  23.675   0.786
43582W        W96478   2.586  13.645   2.739
43583W        W96479  11.644  15.541   2.055
43584W        W96480  25.889  31.599   1.634
43585W        W96481  23.988  22.446   8.984
43586W        W96482  34.887  16.257   2.684
43587W        W96483  30.181  15.203   9.293
43588W        W96484   2.992  14.173  10.313
43589W        W96485  21.926   0.966   1.921
43590W        W96486  10.431  17.705   9.293
43591W        W96487  25.021  21.085   0.403
43592W        W96488  34.589  20.937   1.902
43593W        W96489   4.309  11.104   1.699
43594W        W96490  18.094  10.576   7.935
43595W        W96491   0.025  29.984   7.510
43596W        W96492  16.685  34.966   3.222
43597W        W96493  21.896  13.591   9.069
43598W        W96494  13.781  18.142   8.746
43599W        W96495  24.073  15.775   7.998
43600W        W96496  20.981  17.103   8.819
43601W        W96497  23.863   5.985   7.050
43602W        W96498  22.397   1.762   8.215
43603W        W96499   6.329  35.829   2.108
43604W        W96500  18.686   2.115   8.836
43605W        W96501  10.605  27.841   0.427
43606W        W96502  16.295  18.594   8.500
43607W        W96503  32.191   0.032   7.610
43608W        W96504  10.007   7.994   0.641
43609W        W96505  31.164  12.931   1.759
43610W        W96506  18.782  10.037   8.244
43611W        W96507  24.455  25.661   1.395
43612W        W96508  18.541  13.518   2.801
43613W        W96509  21.277   1.741   8.952
43614W        W96510  26.873  11.785   9.092
43615W        W96511  25.085   9.114   7.987
43616W        W96512  13.628  20.089   9.195
43617W        W96513  21.969  13.515   7.807
43618W        W96514  28.954  16.256   8.210
43619W        W96515  20.082  30.030   2.469
43620W        W96516  33.945   7.963   1.811
43621W        W96517  21.921  19.896   2.681
43622W        W96518   3.877  33.065   0.460
43623W        W96519   7.274  21.127   2.827
43624W        W96520  19.405  23.569   8.256
43625W        W96521  32.094  20.570   0.989
43626W        W96522   0.429   0.277   1.140
43627W        W96523  18.591  12.616   0.000
43628W        W96524   7.924  13.782   1.817
43629W        W96525  28.448  24.933   8.575
43630W        W96526  22.390   7.664   0.454
43631W        W96527   0.959  25.427   0.168
43632W        W96528   5.904  29.096   2.749
43633W        W96529  14.923   1.181   2.863
43634W        W96530  30.368  11.586   9.095
43635W        W96531  16.921  23.663   7.802
43636W        W96532  29.287   4.700   0.326
43637W        W96533  12.339   9.393   0.974
43638W        W96534   6.369   4.781  10.292
43639W        W96535   3.858  25.527   9.516
43640W        W96536  32.271  23.970   9.771
43641W        W96537  30.651   8.604   0.930
43642W        W96538  25.519  34.594   8.631
43643W        W96539  18.928  32.993   2.163
43644W        W96540  14.926   7.447   9.776
43645W        W96541  15.310  18.606   9.637
43646W        W96542  17.346  35.376   1.499
43647W        W96543   8.192   2.371   8.419
43648W        W96544   0.672   6.072   2.791
43649W        W96545  31.063  14.432   1.754
43650W        W96546  21.436  13.172   1.451
43651W        W96547   0.932  31.923   0.445
43652W        W96548  32.534  17.686   1.504
43653W        W96549  19.260  35.609   0.364
43654W        W96550  24.690  15.572   1.524
43655W        W96551   3.104   0.869   1.658
43656W        W96552  22.641  30.835   9.342
43657W        W96553  22.002  33.825   8.097
43658W        W96554  10.677   1.418   0.285
43659W        W96555   1.730  23.650   3.848
43660W        W96556  13.822  20.594   8.041
43661W        W96557  16.463  22.670   9.961
43662W        W96558  12.214  24.626   1.565
43663W        W96559  23.821  32.822  10.059
43664W        W96560   9.672  10.136   9.082
43665W        W96561  30.107  29.451   2.437
43666W        W96562  34.050   0.156   0.139
43667W        W96563  10.865   2.234   6.932
43668W        W96564  21.362  20.123   8.132
43669W        W96565  35.708   9.876  10.188
43670W        W96566  17.290   8.955   8.141
43671W        W96567  26.367  29.961   8.422
43672W        W96568  10.719  19.750   2.957
43673W        W96569  17.475  16.024   0.430
43674W        W96570  20.380   0.470   0.668
43675W        W96571   3.568  17.107   3.209
43676W        W96572  26.148   2.712   8.487
43677W        W96573  15.125  16.550   2.264
43678W        W96574   8.022   4.619   9.165
43679W        W96575  16.336  12.612   2.024
43680W        W96576  13.441   3.545   8.893
43681W        W96577  30.663  20.552  10.274
43682W        W96578   6.867   9.474   2.399
43683W        W96579  14.230   6.585   1.307
43684W        W96580  24.080  18.918   9.713
43685W        W96581   1.682  19.384   0.421
43686W        W96582   8.453   4.276   1.950
43687W        W96583   9.867   8.435   7.771
43688W        W96584  15.178  24.614   2.959
43689W        W96585  22.037  23.610   0.081
43690W        W96586   5.423  29.367   1.267
43691W        W96587  18.757  10.670   3.623
43692W        W96588  29.573   4.507   8.246
43693W        W96589   9.650   6.238   0.995
43694W        W96590   8.684   0.687   1.015
43695W        W96591  28.853   9.420  10.301
43696W        W96592  22.813  18.773   8.728
43697W        W96593   7.664   9.356   9.251
43698W        W96594  21.672  22.742   1.783
43699W        W96595   8.558   3.969   8.767
43700W        W96596  31.347  13.675   0.443
43701W        W96597  12.247  26.759   1.930
43702W        W96598  14.407  21.691   0.706
43703W        W96599  21.404   6.234   9.316
43704W        W96600   3.909   7.083   8.687
43705W        W96601  21.943  17.541   0.722
43706W        W96602  17.354  24.910  10.085
43707W        W96603  32.721  20.998   2.883
43708W        W96604   2.186   1.775   0.747
43709W        W96605  22.438  22.007   0.027
43710W        W96606   9.477  22.740  10.283
43711W        W96607   3.844  14.503   1.143
43712W        W96608  20.653   6.478   9.059
43713W        W96609  13.828  11.666   8.520
43714W        W96610  11.530  35.834   1.994
43715W        W96611  20.664  24.387   8.667
43716W        W96612  23.588   6.129   2.909
43717W        W96613  34.058  27.731   1.347
43718W        W96614  23.435   0.167  10.332
43719W        W96615  29.615  33.152   0.797
43720W        W96616  11.295  16.712   1.187
43721W        W96617  22.475  29.427   8.539
43722W        W96618  33.310  18.297   3.098
43723W        W96619  33.340   3.926   1.854
43724W        W96620  30.895  10.537   9.518
43725W        W96621  24.206  22.937  10.324
43726W        W96622  23.616  14.736   1.860
43727W        W96623  15.595  12.351   9.941
43728W        W96624  11.265  35.857   8.168
43729W        W96625  33.997   1.777   7.799
43730W        W96626   0.803  28.953   0.620
43731W        W96627   5.523   3.397   1.462
43732W        W96628  30.286  20.084   8.284
43733W        W96629  23.022  20.579   7.295
43734W        W96630  16.564  32.439   1.237
43735W        W96631  25.237   3.813   8.908
43736W        W96632  15.572  33.591   2.992
43737W        W96633  20.485  15.498   1.949
43738W        W96634  25.147  25.366   7.114
43739W        W96635  32.546   3.040  10.217
43740W        W96636  35.927  22.473   2.733
43741W        W96637   3.351  23.204   0.018
43742W        W96638  32.850  14.163   8.730
43743W        W96639  20.098  34.518   1.165
43744W        W96640  19.670  26.721   9.607
43745W        W96641  19.068  33.882   0.352
43746W        W96642  29.763  34.488   1.150
43747W        W96643   8.192  31.658   9.170
43748W        W96644  26.720  23.337   8.876
43749W        W96645  18.487  34.117   8.219
43750W        W96646  13.359   7.648   0.483
43751W        W96647  13.774  33.063   2.171
43752W        W96648  23.337  28.638  10.093
43753W        W96649   6.557  18.763   2.268
43754W        W96650  10.965  13.522   8.581
43755W        W96651   3.433  29.096   1.834
43756W        W96652  29.215  25.402  10.176
43757W        W96653   5.232  26.100   7.425
43758W        W96654  12.158   7.484   3.620
43759W        W96655  11.827   5.993   2.688
43760W        W96656  32.423  33.038  10.002
43761W        W96657  26.985  12.386   2.342
43762W        W96658  19.254   8.624   1.933
43763W        W96659   9.429  16.184   8.957
43764W        W96660  33.402   9.011   2.371
43765W        W96661  16.390  11.372   7.762
43766W        W96662   5.245  35.094  10.310
43767W        W96663  33.931  26.809   1.831
43768W        W96664  26.227  14.619   1.094
43769W        W96665  35.811   1.988   1.389
43770W        W96666  21.863   0.745   8.147
43771W        W96667  34.726  35.939   2.517
43772W        W96668  13.912  12.655   3.373
43773W        W96669  35.925  13.114   0.498
43774W        W96670  19.043  11.183   9.153
43775W        W96671  19.492  22.749   9.459
43776W        W96672  26.698  28.821   7.856
43777W        W96673   6.867  22.321  10.200
43778W        W96674  25.915   0.280   1.380
43779W        W96675  26.372   8.475   1.729
43780W        W96676   0.506  33.067   1.979
43781W        W96677  35.858  34.458   8.341
43782W        W96678   3.832  28.828   9.699
43783W        W96679  31.345  29.442   1.767
43784W        W96680  22.650   3.996   0.833
43785W        W96681  20.665   5.779   8.746
43786W        W96682  31.725  28.933   8.962
43787W        W96683  16.650  16.701   2.405
43788W        W96684  14.743  25.271   1.930
43789W        W96685  35.794  30.785   9.110
43790W        W96686   9.366   8.237   8.710
43791W        W96687   3.337  35.830   2.135
43792W        W96688  25.007  24.810   9.259
43793W        W96689  35.749  12.459   9.856
43794W        W96690  15.766   8.324   2.258
43795W        W96691  19.105  24.953   2.166
43796W        W96692  14.594  19.898   2.211
43797W        W96693  31.240   1.743   7.538
43798W        W96694  30.775  23.400   0.350
43799W        W96695  14.115   7.697  10.244
43800W        W96696  26.007  11.871   3.155
43801W        W96697  14.224   8.213   3.657
43802W        W96698  16.280  18.036   3.734
43803W        W96699  35.362   3.941   1.786
43804W        W96700  30.556   1.226   0.220
43805W        W96701  32.655   5.704   3.266
43806W        W96702  35.948  20.205   0.108
43807W        W96703  26.653  33.303  10.145
43808W        W96704  32.999  11.033   0.594
43809W        W96705  33.130  29.550   0.217
43810W        W96706  34.950  31.556   0.466
43811W        W96707  32.117  24.910   8.167
43812W        W96708  15.087  35.799  10.186
43813W        W96709  16.469  14.206   0.174
43814W        W96710  21.831  18.796   8.864
43815W        W96711  24.470  25.068   0.348
43816W        W96712  21.289  23.187   9.901
43817W        W96713  27.116  31.405   0.147
43818W        W96714   3.880  23.256   9.747
43819W        W96715   7.265  33.060   7.871
43820W        W96716   2.063  23.830   8.840
43821W        W96717   5.688   4.784   2.439
43822W        W96718  20.188   4.536   3.750
43823W        W96719   5.017   8.778   0.200
43824W        W96720  23.843   8.669   0.612
43825W        W96721   0.530   7.379   8.992
43826W        W96722  14.654  19.215   9.213
43827W        W96723  17.379   7.752   0.651
43828W        W96724  30.320  35.717   7.324
43829W        W96725  29.105  23.808  10.103
43830W        W96726  34.127  16.126   1.840
43831W        W96727  33.401   9.836   0.014
43832W        W96728  23.000  24.139   9.387
43833W        W96729   7.127  13.611   8.811
43834W        W96730   9.288   0.247   1.482
43835W        W96731  21.981  31.991   1.464
43836W        W96732  33.727   5.891   8.820
43837W        W96733  27.374  28.008  10.083
43838W        W96734   0.268  26.703   8.273
43839W        W96735  26.103  29.032   1.029
43840W        W96736   2.236  33.075   8.017
43841W        W96737   4.725  22.453  10.158
43842W        W96738  20.755  21.940   4.205
43843W        W96739   4.849   8.294   0.133
43844W        W96740   0.504  27.921   2.944
43845W        W96741   9.662  31.853   8.188
43846W        W96742  24.728  34.186   9.021
43847W        W96743  35.019   8.758   0.261
43848W        W96744   0.885   6.624   7.654
43849W        W96745  31.647  14.638   3.873
43850W        W96746  34.377  25.043   9.872
43851W        W96747  28.115  30.066   7.768
43852W        W96748  32.792  19.772   8.645
43853W        W96749  17.039  15.479   1.992
43854W        W96750   4.836  35.806  10.267
43855W        W96751  25.926  20.205   3.513
43856W        W96752  25.192  20.131   8.129
43857W        W96753  20.855  18.317   9.612
43858W        W96754  13.362  21.331   7.677
43859W        W96755  15.413  20.593   0.986
43860W        W96756  30.772   0.995   0.732
43861W        W96757   6.801  30.084   2.455
43862W        W96758   6.375  33.024   9.924
43863W        W96759  19.920  35.477   8.533
43864W        W96760   5.724   0.973   1.541
43865W        W96761  24.426  32.338   2.357
43866W        W96762  28.870  21.540   0.122
43867W        W96763  25.868  18.845   9.704
43868W        W96764  12.826  29.194   2.844
43869W        W96765  18.476   4.915   8.395
43870W        W96766  25.425  23.169   8.733
43871W        W96767  10.517   0.865   1.949
43872W        W96768  12.130  33.597   0.714
43873W        W96769  26.274  13.808   0.071
43874W        W96770  17.460  28.442   0.296
43875W        W96771  24.255  22.035   3.287
43876W        W96772  18.962   0.061   0.693
43877W        W96773  14.437   2.406   8.770
43878W        W96774   7.280  17.168   8.902
43879W        W96775  26.336  10.089   9.966
43880W        W96776  23.177  19.070   9.088
43881W        W96777   6.378  25.245   7.917
43882W        W96778  16.523  22.204   8.131
43883W        W96779  25.100   8.124   3.200
43884W        W96780  19.462  10.188   8.691
43885W        W96781  20.996  14.079   8.073
43886W        W96782  24.355   4.511   3.264
43887W        W96783  21.422  10.071   9.310
43888W        W96784   8.249   4.696   2.943
43889W        W96785  16.417  24.140   2.738
43890W        W96786  10.032  19.560  10.015
43891W        W96787   0.933  22.739   3.279
43892W        W96788  23.381  25.861   0.229
43893W        W96789  32.798   6.015   0.704
43894W        W96790  25.421  32.502   8.148
43895W        W96791  35.614  11.695   8.143
43896W        W96792  27.693  23.227   0.947
43897W        W96793  21.240  10.636   9.165
43898W        W96794  12.228  27.114   0.335
43899W        W96795   6.333   2.409   7.730
43900W        W96796  31.098  22.219   0.258
43901W        W96797  25.863  34.631   1.404
43902W        W96798  25.658  31.291   2.353
43903W        W96799  14.905  14.311   7.801
43904W        W96800  33.547   9.690   9.073
43905W        W96801  30.855  19.003   9.627
43906W        W96802  35.491  17.105   8.154
43907W        W96803   0.458  22.051   9.800
43908W        W96804  13.884  12.290   0.224
43909W        W96805   9.329  18.172   1.938
43910W        W96806  20.890  34.298   8.962
43911W        W96807   1.422  31.940   0.645
43912W        W96808  34.725  28.468   9.847
43913W        W96809  25.392  25.014   8.528
43914W        W96810  20.887   3.388   0.897
43915W        W96811  35.046  35.831   0.761
43916W        W96812   0.068  28.941   8.501
43917W        W96813  11.213   2.219   6.532
43918W        W96814   5.486   5.100   0.262
43919W        W96815  13.261  12.809   7.343
43920W        W96816   1.938  29.324   2.694
43921W        W96817  10.907   4.426   2.818
43922W        W96818  21.661  27.015   8.297
43923W        W96819  11.530  17.596   2.606
43924W        W96820   9.363  12.694   1.535
43925W        W96821  19.291  23.202   9.372
43926W        W96822   5.992  20.097   1.834
43927W        W96823  16.983   8.606   0.046
43928W        W96824  28.984  17.329   7.740
43929W        W96825  33.784   2.742   8.731
43930W        W96826  30.823  14.020   0.444
43931W        W96827  27.117  22.403   0.950
43932W        W96828  32.137  27.713   8.287
43933W        W96829   0.389   1.309   3.091
43934W        W96830  21.993  30.195   9.079
43935W        W96831   6.142  26.663  10.285
43936W        W96832  18.469  14.950   8.966
43937W        W96833  30.899   2.780   3.131
43938W        W96834  31.199  13.682   1.328
43939W        W96835  13.927  12.202   8.394
43940W        W96836  23.024  17.796   1.997
43941W        W96837   5.689  31.193   1.695
43942W        W96838  16.826  26.344   0.216
43943W        W96839  27.227   0.071   3.323
43944W        W96840  28.187   4.188   0.609
43945W        W96841  23.953  30.322   3.275
43946W        W96842   9.424  34.861   9.032
43947W        W96843  27.648  20.777   0.295
43948W        W96844  23.029   7.295   7.546
43949W        W96845  21.957  25.405   7.638
43950W        W96846  20.780  23.681   3.770
43951W        W96847  23.541  19.751   9.323
43952W        W96848  11.599   1.381   0.361
43953W        W96849   6.053   6.136   9.618
43954W        W96850  35.370   4.575   8.883
43955W        W96851  32.723  29.335   0.362
43956W        W96852   5.464  35.774   1.842
43957W        W96853  10.976  19.521   8.372
43958W        W96854   1.856  29.460   9.419
43959W        W96855  11.088  14.007   8.682
43960W        W96856   2.695  32.001   0.832
43961W        W96857  18.597  19.986  10.305
43962W        W96858  14.191  19.453   9.628
43963W        W96859  18.536  29.944   8.930
43964W        W96860  22.295   4.254   7.809
43965W        W96861  30.411  24.022   2.518
43966W        W96862  15.989  18.927   8.637
43967W        W96863   8.526  26.116   0.374
43968W        W96864  17.715  14.850   3.117
43969W        W96865  22.192  23.409   8.992
43970W        W96866  12.985   7.383   8.685
43971W        W96867  17.808   3.411   0.267
43972W        W96868  28.941  27.492   1.035
43973W        W96869  18.552  16.549   8.695
43974W        W96870   8.002  35.546   8.438
43975W        W96871  30.817   9.090   1.134
43976W        W96872  16.955  19.072   0.978
43977W        W96873   2.815   8.047   0.209
43978W        W96874  28.097  23.726   1.659
43979W        W96875  26.509  23.826   8.981
43980W        W96876   5.931  25.001   9.130
43981W        W96877  20.739   5.112   9.219
43982W        W96878  16.484  24.605   8.983
43983W        W96879   9.478  25.107   7.145
43984W        W96880  14.592   3.523   1.207
43985W        W96881  22.045  21.896   9.092
43986W        W96882   3.151  10.325   9.287
43987W        W96883  23.984  29.804   8.489
43988W        W96884   8.479  25.081   0.954
43989W        W96885   5.912   6.622   2.918
43990W        W96886   1.478  34.626  10.115
43991W        W96887  32.938  18.791   0.697
43992W        W96888  11.423   0.738   8.054
43993W        W96889  19.802  10.395   1.974
43994W        W96890  15.390   5.857   9.747
43995W        W96891  13.977  21.040   8.326
43996W        W96892   4.167  16.957   3.054
43997W        W96893  16.596  32.956   3.235
43998W        W96894   7.838  34.561   8.853
43999W        W96895  33.540   1.014   0.394
44000W        W96896  29.461  23.233   8.400
44001W        W96897  24.617  25.869   8.560
44002W        W96898  24.242  33.917   8.936
44003W        W96899   7.056  14.027   0.491
44004W        W96900  33.063   9.113   0.048
44005W        W96901   4.098  24.854   8.835
44006W        W96902  23.843   9.456  10.314
44007W        W96903  15.127  15.551   2.248
44008W        W96904  22.380  31.496   2.602
44009W        W96905  28.481  23.278   9.206
44010W        W96906   7.069  34.295   9.688
44011W        W96907   6.946  14.210   8.206
44012W        W96908  35.509  12.097   2.192
44013W        W96909  10.449   1.521   9.378
44014W        W96910   3.406  16.166   3.376
44015W        W96911   8.800  13.920   8.378
44016W        W96912   6.142  24.814   0.855
44017W        W96913   3.960  10.121   0.751
44018W        W96914   9.982  26.282   0.240
44019W        W96915   7.048  25.774   8.978
44020W        W96916   1.988  18.005   0.676
44021W        W96917  21.260  31.779   9.093
44022W        W96918  11.878  31.981   3.812
44023W        W96919  15.802  12.527   0.791
44024W        W96920  31.123   0.312   8.577
44025W        W96921  30.724  27.463  10.043
44026W        W96922  31.889  26.603   3.525
44027W        W96923  12.294  22.913   9.015
44028W        W96924   4.434  27.438   1.042
44029W        W96925  20.222  15.142   1.026
44030W        W96926  31.390   4.290   7.523
44031W        W96927  32.654  22.454   7.941
44032W        W96928   7.718  22.538   1.783
44033W        W96929  20.893  10.689   3.771
44034W        W96930  34.922   1.341   1.944
44035W        W96931  23.003  24.328   1.744
44036W        W96932   2.841  20.180   0.536
44037W        W96933   2.069  28.649   8.532
44038W        W96934  15.949  10.415  10.044
44039W        W96935  20.207  28.466   3.081
44040W        W96936  22.488  25.468   3.891
44041W        W96937   8.909  34.107   1.896
44042W        W96938   2.037   5.647   1.300
44043W        W96939  18.180  30.841   2.315
44044W        W96940   1.732  23.778   1.570
44045W        W96941   1.469  33.369  10.153
44046W        W96942  25.947  13.262   2.176
44047W        W96943   5.509  32.365   8.722
44048W        W96944   2.021   6.883   9.879
44049W        W96945   8.205   5.981   0.356
44050W        W96946  28.607  35.640   0.427
44051W        W96947  22.855  19.423   3.814
44052W        W96948  34.137   5.087   9.102
44053W        W96949  15.258  20.713   9.287
44054W        W96950  10.058   0.005   9.188
44055W        W96951  17.356   7.388   9.732
44056W        W96952   2.542  33.265   2.896
44057W        W96953  31.616  24.541   8.321
44058W        W96954   3.577  30.155   2.784
44059W        W96955  14.813  25.556  10.173
44060W        W96956  33.124  33.442   2.846
44061W        W96957  26.168   2.008   1.285
44062W        W96958   5.313  16.398   8.080
44063W        W96959  10.387  27.591   8.691
44064W        W96960   5.817  12.618   8.299
44065W        W96961   4.693  16.689   9.863
44066W        W96962  17.557  12.869   1.468
44067W        W96963  31.878  26.507   0.422
44068W        W96964  11.677  21.927   7.351
44069W        W96965   1.546  16.341   4.036
44070W        W96966  34.238  33.491   1.292
44071W        W96967  34.897  16.871  10.175
44072W        W96968  23.567  14.296   9.595
44073W        W96969  28.090  30.314   8.804
44074W        W96970  24.125  26.478   1.201
44075W        W96971  12.338  24.926   7.268
44076W        W96972  35.723  34.027   1.557
44077W        W96973  26.177  19.897   9.333
44078W        W96974   5.859  29.478   2.033
44079W        W96975  34.950  14.502   2.464
44080W        W96976  18.636   6.176   2.425
44081W        W96977  22.929  35.002   2.858
44082W        W96978  23.894  15.428   8.949
44083W        W96979  34.713  18.583   0.972
44084W        W96980  25.602  14.427   0.339
44085W        W96981  27.186  22.537   7.733
44086W        W96982  20.243  16.811   3.262
44087W        W96983  16.176   0.247   8.466
44088W        W96984  32.245   2.424   8.042
44089W        W96985   8.098  11.717  10.223
44090W        W96986  12.411  29.558  10.117
44091W        W96987  10.926  25.851   9.338
44092W        W96988   9.803  30.210   0.801
44093W        W96989   4.465   6.446   0.299
44094W        W96990  12.298  26.727   7.684
44095W        W96991  12.422  28.101   9.569
44096W        W96992  21.609   0.251   1.255
44097W        W96993  11.894  31.958   8.383
44098W        W96994  27.309  34.456   9.564
44099W        W96995   8.658  16.077   9.875
44100W        W96996  13.903  29.463   9.249
44101W        W96997  19.698   3.596   3.051
44102W        W96998  20.137  25.493   0.022
44103W        W96999  23.907  30.165   2.418
44104W        W97000  10.742   7.189   1.639
44105W        W97001  22.887  24.085   2.736
44106W        W97002  31.907  12.944   2.456
44107W        W97003  17.853   3.030   9.271
44108W        W97004   2.138   3.456   2.382
44109W        W97005  33.281  22.858   1.080
44110W        W97006   5.419  31.368   0.476
44111W        W97007   0.117  26.252   2.846
44112W        W97008  32.129  22.512   2.745
44113W        W97009   1.677   1.469   9.555
44114W        W97010   8.527  34.332   1.679
44115W        W97011   5.305  26.760   1.651
44116W        W97012  29.038  35.044   9.019
44117W        W97013  13.034  20.791   2.760
44118W        W97014  21.630  33.083   3.017
44119W        W97015   7.541  18.780  10.308
44120W        W97016  28.636  28.486   2.576
44121W        W97017  24.035  18.790   0.829
44122W        W97018  20.200  34.634   0.141
44123W        W97019  14.144  28.222   8.177
44124W        W97020  26.297   9.960   0.590
44125W        W97021  24.984  32.569   7.804
44126W        W97022  14.421  32.942   0.258
44127W        W97023  34.474  13.300   7.279
44128W        W97024   8.113   1.147   8.213
44129W        W97025  30.286  25.831   0.502
44130W        W97026  10.930  16.369   0.162
44131W        W97027  14.577   8.301   2.891
44132W        W97028  28.789  25.651   1.806
44133W        W97029   8.802  35.815   0.688
44134W        W97030   9.410   8.475   9.731
44135W        W97031   4.771  31.916   1.704
44136W        W97032  31.485   8.198   9.491
44137W        W97033  13.726  32.346   1.279
44138W        W97034  33.441  17.880   0.957
44139W        W97035  32.194  22.053   7.249
44140W        W97036  18.656   4.365   1.854
44141W        W97037  24.329  17.059   7.613
44142W        W97038  22.760  16.802   8.086
44143W        W97039  27.181   7.239   3.251
44144W        W97040  17.586  30.630   8.057
44145W        W97041  28.185  19.377  10.096
44146W        W97042  11.847  11.835   9.850
44147W        W97043  27.139  30.728   0.675
44148W        W97044  11.406  31.723   1.407
44149W        W97045  33.366   9.730   9.858
44150W        W97046   8.709   4.282   7.753
44151W        W97047  25.845  15.925   1.795
44152W        W97048  29.422  12.185   9.949
44153W        W97049  16.121  31.708   8.705
44154W        W97050  34.996  23.027   8.984
44155W        W97051  11.724  13.478   0.737
44156W        W97052   5.114   1.060   8.406
44157W        W97053  29.055  24.492   2.337
44158W        W97054  15.695   2.339  10.269
44159W        W97055   7.193  33.214   9.735
44160W        W97056  31.255  27.547   8.815
44161W        W97057  22.008  20.474  10.236
44162W        W97058   4.272  23.404   9.222
44163W        W97059  16.010  29.050   1.599
44164W        W97060  17.515   0.807  10.078
44165W        W97061  21.690  23.266   9.108
44166W        W97062   1.952  23.584   8.108
44167W        W97063   9.882  13.165   1.228
44168W        W97064  17.179  22.270   0.552
44169W        W97065   1.716  30.122   9.594
44170W        W97066   6.585  35.148   9.846
44171W        W97067  16.605  20.429   1.759
44172W        W97068  10.314  30.216  10.210
44173W        W97069  34.789  20.659   9.991
44174W        W97070  24.986  18.688   9.928
44175W        W97071  15.674   3.856   0.833
44176W        W97072  27.580  20.200   8.409
44177W        W97073   0.844  10.857   8.968
44178W        W97074   0.848  25.187   1.865
44179W        W97075  35.043  10.586   0.421
44180W        W97076  21.461  34.636   2.424
44181W        W97077   1.404  27.464   1.036
44182W        W97078  20.737  33.075  10.093
44183W        W97079  14.815  18.801   0.196
44184W        W97080  22.491  20.123   9.048
44185W        W97081  14.209  24.367   9.276
44186W        W97082  10.723  30.103   7.773
44187W        W97083  35.740  20.212   2.476
44188W        W97084  16.826   2.086   1.852
44189W        W97085  29.649   6.046   9.995
44190W        W97086  13.478  12.569   9.001
44191W        W97087   6.885   3.386   9.262
44192W        W97088  21.806   3.033   2.054
44193W        W97089  26.459  25.144   2.222
44194W        W97090   3.143  25.879  10.021
44195W        W97091  19.412   9.305   9.357
44196W        W97092  18.269  12.043   8.981
44197W        W97093  23.821   6.604   9.475
44198W        W97094  32.923  33.574   9.342
44199W        W97095   2.996  18.879   2.488
44200W        W97096  35.980  34.106   9.214
44201W        W97097   2.924  13.971   8.305
44202W        W97098  23.560   5.540   9.048
44203W        W97099  17.399  17.098   2.932
44204W        W97100  30.134  23.415   1.554
44205W        W97101  18.307   3.872   8.418
44206W        W97102  29.784   0.448   9.617
44207W        W97103   5.308  22.478   9.210
44208W        W97104  22.059  18.695   3.590
44209W        W97105  12.279  35.872  10.029
44210W        W97106  27.701  30.159   1.891
44211W        W97107  22.290  16.764  10.326
44212W        W97108   2.597   9.589   9.218
44213W        W97109  15.987  28.542   2.357
44214W        W97110  30.831  26.167   2.808
44215W        W97111  27.515  31.661   7.659
44216W        W97112  26.950  15.359   9.184
44217W        W97113  27.485  26.876   0.794
44218W        W97114  24.773   3.538   7.500
44219W        W97115  26.117  35.973   1.010
44220W        W97116   6.927  35.398   8.541
44221W        W97117   2.610  27.462   8.200
44222W        W97118  23.668   8.360   2.063
44223W        W97119  22.605   7.952   2.915
44224W        W97120   1.859  11.255   2.361
44225W        W97121  17.302  32.724   0.161
44226W        W97122  15.144   9.848   7.473
44227W        W97123  35.088  32.048   8.984
44228W        W97124  27.112  13.157   9.223
44229W        W97125   6.962  30.761   0.933
44230W        W97126  16.427  21.113   2.503
44231W        W97127  15.804   1.673   7.792
44232W        W97128  12.514  17.477   8.824
44233W        W97129  32.471  29.176   3.443
44234W        W97130  21.807  30.462   1.857
44235W        W97131  26.229  22.680   1.597
44236W        W97132   8.267  34.263   3.179
44237W        W97133  34.901  26.733   0.978
44238W        W97134  16.865  21.113   2.788
44239W        W97135   9.680  24.775   1.113
44240W        W97136  27.029  31.551   9.020
44241W        W97137  13.604  23.497   2.360
44242W        W97138  14.751  30.113   0.588
44243W        W97139  29.584   5.137   1.534
44244W        W97140  19.018  29.904   9.065
44245W        W97141  18.362  23.093   1.305
44246W        W97142  10.346   4.115  10.051
44247W        W97143  24.623  36.013   0.718
44248W        W97144  34.867   4.112   0.417
44249W        W97145  21.019  31.434   0.659
44250W        W97146   7.171   2.710   9.834
44251W        W97147  18.726  28.949   3.602
44252W        W97148  25.921   5.537   2.954
44253W        W97149  14.301  22.887   8.951
44254W        W97150  13.041  35.469   2.472
44255W        W97151  12.490  16.045   8.044
44256W        W97152  16.016  29.243   1.025
44257W        W97153  29.617   2.667   1.875
44258W        W97154  29.978   3.253   7.577
44259W        W97155   1.317  33.318   1.464
44260W        W97156   4.620  20.876   3.905
44261W        W97157  33.274  21.143   9.442
44262W        W97158  17.929   2.502   8.456
44263W        W97159  11.001  24.321   7.387
44264W        W97160   7.962  13.565   8.467
44265W        W97161  21.567  12.526   9.614
44266W        W97162  19.642  29.342   3.908
44267W        W97163  19.063   6.706   9.147
44268W        W97164   8.759  22.227   9.108
44269W        W97165   1.781   4.749   1.632
44270W        W97166   1.764   0.732   0.566
44271W        W97167  11.905  28.173  10.335
44272W        W97168  20.529  34.762   9.667
44273W        W97169  25.332  33.428   1.792
44274W        W97170  31.751  23.530   7.281
44275W        W97171  25.447  33.530  10.228
44276W        W97172  28.574  26.114   7.561
44277W        W97173   8.638  26.024   8.643
44278W        W97174  16.997  21.123   1.121
44279W        W97175  35.821  25.733   1.943
44280W        W97176  25.182  21.392   9.284
44281W        W97177  22.843  21.614   2.761
44282W        W97178  13.547   0.252  10.100
44283W        W97179   4.447   4.027  10.253
44284W        W97180   9.844   4.840   8.585
44285W        W97181  22.440  15.665   9.942
44286W        W97182  30.905  12.459   7.847
44287W        W97183  34.621   8.912   8.367
44288W        W97184  14.798  13.607   2.111
44289W        W97185  24.079  18.937   8.956
44290W        W97186  33.640  31.245   9.481
44291W        W97187   4.387  18.250   1.533
44292W        W97188  22.755  34.246   7.562
44293W        W97189  34.276  11.297   2.944
44294W        W97190   0.468  33.301   9.606
44295W        W97191  23.357  19.809   2.948
44296W        W97192  18.037  29.674   3.435
44297W        W97193  10.632   8.599   9.577
44298W        W97194   4.337  28.184  10.151
44299W        W97195  35.273  17.330  10.293
44300W        W97196  25.430   3.066   9.339
44301W        W97197  17.067   4.916   0.796
44302W        W97198  35.554   3.744   0.715
44303W        W97199  32.856   9.152   6.963
44304W        W97200  11.958  11.326   0.019
44305W        W97201  28.337   6.555   9.317
44306W        W97202   3.663  13.234   3.330
44307W        W97203   8.304  17.774   2.084
44308W        W97204  32.152  16.343   1.018
44309W        W97205   8.318  34.020   7.815
44310W        W97206  15.014   8.825   8.317
44311W        W97207  35.718  27.255   1.645
44312W        W97208   1.994  30.935   2.209
44313W        W97209  10.874   0.663   7.167
44314W        W97210  18.973  11.595   1.299
44315W        W97211  27.638  12.979   3.811
44316W        W97212  21.689  25.116  10.243
44317W        W97213  17.407   3.222   0.473
44318W        W97214   3.503  17.783   2.679
44319W        W97215   4.393  24.247   0.222
44320W        W97216   5.917  25.575   0.361
44321W        W97217  11.119  34.865   7.709
44322W        W97218  18.385  33.851   7.228
44323W        W97219  30.657  17.156   1.577
44324W        W97220  10.194  17.983   8.076
44325W        W97221  23.153  32.129   2.233
44326W        W97222   8.373  28.574   0.249
44327W        W97223   7.332  17.535   1.090
44328W        W97224  32.954  19.426   0.172
44329W        W97225  34.381  10.805   2.812
44330W        W97226   2.286   4.745   2.623
44331W        W97227  27.286  23.080   9.772
44332W        W97228  26.656   6.797   0.281
44333W        W97229  10.054  24.393   7.185
44334W        W97230  23.763  18.893  10.126
44335W        W97231   5.148  24.023   2.115
44336W        W97232  27.437  29.452   7.866
44337W        W97233  32.195  17.504   8.955
44338W        W97234  25.742  31.278   7.449
44339W        W97235  28.704  14.120  10.317
44340W        W97236  10.910  22.569   9.817
44341W        W97237  30.061  22.528   7.043
44342W        W97238  31.038  26.558   1.288
44343W        W97239  25.480  33.545   8.874
44344W        W97240  12.298   3.480   7.907
44345W        W97241  27.799   2.253   8.045
44346W        W97242  28.749  24.272   3.643
44347W        W97243  18.339  29.506   1.770
44348W        W97244   4.864  19.253   2.457
44349W        W97245   6.328  28.350   2.374
44350W        W97246   2.882   3.496   7.205
44351W        W97247   4.822  15.308   0.603
44352W        W97248  10.519  31.339   2.138
44353W        W97249  29.743   2.826   7.731
44354W        W97250   4.133  13.463   8.312
44355W        W97251  18.757  32.303   2.949
44356W        W97252  30.190   7.453   8.279
44357W        W97253  30.421  10.728   0.622
44358W        W97254  29.466   8.230   9.004
44359W        W97255  17.116  25.167   8.706
44360W        W97256   7.500  27.482   7.632
44361W        W97257  28.585  31.553   7.817
44362W        W97258  18.194  31.508   0.989
44363W        W97259   2.697   4.806   9.942
44364W        W97260  28.393  33.046   8.549
44365W        W97261  25.299  15.330   2.263
44366W        W97262   9.003   2.498   7.511
44367W        W97263   1.256  11.217   1.493
44368W        W97264  10.934  18.626   8.368
44369W        W97265  19.729  24.636   2.846
44370W        W97266  25.368  10.175   3.413
44371W        W97267  27.803  11.187   3.273
44372W        W97268  36.013  13.471   0.905
44373W        W97269  27.051  17.348   2.461
44374W        W97270  25.437  28.204   0.454
44375W        W97271  17.681   6.386   8.907
44376W        W97272  12.647   2.683   9.312
44377W        W97273  16.272  35.285   0.500
44378W        W97274  16.415  22.352   2.082
44379W        W97275  21.171  27.029   1.166
44380W        W97276  23.102   4.540   1.365
44381W        W97277   3.643  33.241   9.842
44382W        W97278  24.736   0.934   8.672
44383W        W97279  14.816   3.483   2.588
44384W        W97280   2.624  23.381   3.449
44385W        W97281  30.946  23.428   9.719
44386W        W97282  24.300  19.182   3.587
44387W        W97283  27.559  29.445   8.351
44388W        W97284  12.048   1.517   0.120
44389W        W97285   0.248  18.539   2.060
44390W        W97286  31.660  14.411   7.883
44391W        W97287  29.124  32.552   6.622
44392W        W97288  34.062  25.432   9.959
44393W        W97289  33.772  26.303   2.224
44394W        W97290  33.495  28.123   3.484
44395W        W97291  24.089  27.227   9.444
44396W        W97292  30.757  22.060   3.246
44397W        W97293  21.273  22.451   1.869
44398W        W97294  22.642  12.044   1.907
44399W        W97295  32.854  18.983   9.212
44400W        W97296  20.890  14.873   3.041
44401W        W97297   5.328  11.568   9.102
44402W        W97298   0.060   1.684  10.100
44403W        W97299  13.691  17.947   3.578
44404W        W97300  34.310  10.641   0.216
44405W        W97301   1.575   1.821   1.190
44406W        W97302  24.697  33.726   9.163
44407W        W97303  19.596  20.044   3.290
44408W        W97304   5.569  26.829  10.064
44409W        W97305   9.540  17.061   9.812
44410W        W97306  14.141   2.293   0.335
44411W        W97307  33.901  28.026   8.851
44412W        W97308  34.698  27.177   0.181
44413W        W97309  28.481   1.850   2.400
44414W        W97310  25.178   5.670   2.019
44415W        W97311  11.971  10.917   2.633
44416W        W97312   6.789  27.428   9.276
44417W        W97313  34.888  22.695   9.849
44418W        W97314   6.691  23.421   0.710
44419W        W97315   0.376  16.956   1.062
44420W        W97316  11.195   5.739   0.821
44421W        W97317  15.269  30.701   9.669
44422W        W97318  32.874  25.206   2.986
44423W        W97319  34.025  27.625   7.190
44424W        W97320  10.651   5.993   1.126
44425W        W97321  11.498  30.021   0.252
44426W        W97322  23.039   7.952   9.296
44427W        W97323  21.401  29.562   1.863
44428W        W97324   4.928  34.597   7.809
44429W        W97325  16.737  32.683   8.486
44430W        W97326  16.351   1.809   9.623
44431W        W97327  33.575  29.217   1.099
44432W        W97328   2.256  20.916   0.698
44433W        W97329   5.032   3.661   0.659
44434W        W97330  14.291  15.624   8.416
44435W        W97331  19.416  23.665   8.869
44436W        W97332  28.890  12.013   8.788
44437W        W97333  31.294  10.921   0.711
44438W        W97334   3.001  28.925   0.941
44439W        W97335  24.083   7.478   7.576
44440W        W97336  11.982  35.319   1.507
44441W        W97337  19.017  16.178   9.481
44442W        W97338  22.575  11.461   2.749
44443W        W97339  18.178   6.673   3.041
44444W        W97340  30.954  12.914   9.260
44445W        W97341  10.779   5.403   0.170
44446W        W97342  18.622   1.377   8.345
44447W        W97343  23.723   5.229   0.046
44448W        W97344  24.467  34.981   1.636
44449W        W97345  29.881  23.152   0.709
44450W        W97346   8.649  33.089   7.977
44451W        W97347  27.847  23.166   7.950
44452W        W97348  14.872  14.501   8.380
44453W        W97349   0.711   2.894   2.434
44454W        W97350  27.670  19.913   0.588
44455W        W97351  19.979  31.189   2.567
44456W        W97352  26.393  17.770   0.843
44457W        W97353  31.765  35.184   9.603
44458W        W97354  10.402   0.844   7.507
44459W        W97355  19.864  24.053  10.245
44460W        W97356  33.119   3.043   7.341
44461W        W97357  15.816   9.483   8.807
44462W        W97358   0.741  29.563   0.335
44463W        W97359   1.141  22.633  10.218
44464W        W97360   4.630   2.520   0.796
44465W        W97361  20.475   4.209   3.143
44466W        W97362   1.225   6.486   9.810
44467W        W97363  30.751  27.658   3.107
44468W        W97364   7.920  20.811  10.255
44469W        W97365  10.119  10.948   1.709
44470W        W97366  15.136   4.911   1.964
44471W        W97367   3.944  26.703   9.461
44472W        W97368  21.462  26.524   1.431
44473W        W97369  31.481  14.955   8.370
44474W        W97370   2.056  23.327   8.950
44475W        W97371  24.281  13.268   0.500
44476W        W97372  31.578  27.702   8.156
44477W        W97373  15.771   3.262  10.179
44478W        W97374   3.882  27.987  10.236
44479W        W97375   7.591  13.885   9.179
44480W        W97376  24.900  27.644   0.139
44481W        W97377  25.466   8.192   1.627
44482W        W97378  24.043  10.734   3.830
44483W        W97379  11.642   5.519   8.396
44484W        W97380  25.528   8.910   1.637
44485W        W97381  29.077  32.912   3.162
44486W        W97382   4.384   8.908   4.094
44487W        W97383   6.802  21.717   2.379
44488W        W97384   4.101  14.184   3.376
44489W        W97385   0.854  21.878   8.532
44490W        W97386   5.319  30.597   0.701
44491W        W97387  15.943  23.233   7.524
44492W        W97388  17.829  24.096   2.154
44493W        W97389   4.803  27.720   9.297
44494W        W97390   4.244  22.770   2.456
44495W        W97391   4.253   8.846   0.764
44496W        W97392  34.306   9.901   2.818
44497W        W97393  34.070   4.943   1.639
44498W        W97394   9.533  14.249   3.211
44499W        W97395  15.090  31.121   2.792
44500W        W97396  30.860   7.476  10.273
44501W        W97397  23.115  17.033   3.685
44502W        W97398   6.430   8.150   2.936
44503W        W97399  20.425   6.566   1.618
44504W        W97400   1.653  25.109   1.211
44505W        W97401  33.267   2.611   1.180
44506W        W97402  35.472  23.368   3.100
44507W        W97403  27.205   4.498   1.269
44508W        W97404  33.656  26.089   1.235
44509W        W97405  21.366  25.564   1.610
44510W        W97406  15.516  20.728   9.788
44511W        W97407   8.852  13.981   1.190
44512W        W97408  35.963   7.311   0.944
44513W        W97409   9.079   9.902   7.922
44514W        W97410   2.805   8.562   1.371
44515W        W97411   9.949   4.729   1.014
44516W        W97412  27.262  11.713  10.251
44517W        W97413  16.101  29.572   2.202
44518W        W97414   1.470  14.436   1.547
44519W        W97415  15.098  13.176   2.249
44520W        W97416  35.808   4.071   0.356
44521W        W97417  28.717  10.731   1.583
44522W        W97418   0.805  19.959   0.215
44523W        W97419   2.041   8.977   0.263
44524W        W97420  23.397  10.941   0.468
44525W        W97421  10.691  29.549   7.713
44526W        W97422  21.149  34.948   0.041
44527W        W97423  32.025   2.954   8.839
44528W        W97424   4.712  27.160   8.275
44529W        W97425   6.457  10.017   8.614
44530W        W97426  33.495  15.683   9.110
44531W        W97427   2.585  14.962   2.226
44532W        W97428  35.490   7.457   3.226
44533W        W97429  17.177  14.482   8.935
44534W        W97430  16.249  15.965   1.243
44535W        W97431  35.983  29.539   0.320
44536W        W97432  31.053  17.133   1.226
44537W        W97433   2.752  19.400   8.469
44538W        W97434   8.504  11.197   0.086
44539W        W97435  22.153  32.425   2.583
44540W        W97436  26.128  29.478   2.806
44541W        W97437   2.322  18.801   3.109
44542W        W97438   7.306  24.206   8.150
44543W        W97439  25.894   6.279   0.771
44544W        W97440  20.102  22.324   7.728
44545W        W97441  18.199  13.133   8.756
44546W        W97442  24.373  33.505   2.686
44547W        W97443  31.238   4.424   9.568
44548W        W97444  18.247  33.006   0.146
44549W        W97445  11.714  22.929   9.743
44550W        W97446  22.656   0.896   7.911
44551W        W97447  13.998  21.017   8.969
44552W        W97448   6.301  32.391   0.406
44553W        W97449   5.548  34.467   7.695
44554W        W97450  22.380  22.778   9.878
44555W        W97451  17.078  19.953   2.647
44556W        W97452  26.701  12.751   0.070
44557W        W97453  32.697   7.773   7.662
44558W        W97454   9.241  15.335   2.110
44559W        W97455  13.711  30.692   1.898
44560W        W97456  15.566  15.413   0.164
44561W        W97457   8.253  24.073   2.009
44562W        W97458  33.248  31.166   9.853
44563W        W97459  25.081   5.330  10.222
44564W        W97460   0.728  15.031   0.499
44565W        W97461  21.316   3.675   2.352
44566W        W97462   0.828  16.054   0.509
44567W        W97463  19.027  34.133   1.872
44568W        W97464  14.822  27.154   0.113
44569W        W97465  13.098   8.087   0.566
44570W        W97466  30.759  14.069   8.801
44571W        W97467  21.591  17.867   8.460
44572W        W97468   3.889   5.299   2.266
44573W        W97469  27.616  19.084   1.819
44574W        W97470   6.334  27.496   8.205
44575W        W97471  14.087  15.118   8.354
44576W        W97472  16.616  29.714   8.954
44577W        W97473  24.038  17.764   8.192
44578W        W97474  18.441  23.785  10.214
44579W        W97475  14.075   1.264   9.456
44580W        W97476  32.473   7.891   1.868
44581W        W97477   3.971   5.138   9.447
44582W        W97478  22.090  28.683   0.608
44583W        W97479   2.966   0.462   1.929
44584W        W97480   7.646  17.492   8.055
44585W        W97481   7.659  31.039   2.465
44586W        W97482   7.414   9.026   9.586
44587W        W97483  34.135   7.203   9.104
44588W        W97484  13.150  32.301   8.327
44589W        W97485  25.533   0.391   3.679
44590W        W97486  22.209   3.410   0.675
44591W        W97487   1.375  18.734   9.690
44592W        W97488  16.672  33.031   9.991
44593W        W97489  35.544  11.903   8.640
44594W        W97490  17.620  25.160   1.133
44595W        W97491  33.744   8.103   1.290
44596W        W97492  27.072  10.968   8.127
44597W        W97493   7.082  10.198   9.369
44598W        W97494  22.029  30.115   1.164
44599W        W97495  26.936  18.652   2.605
44600W        W97496  13.105  15.327   7.270
44601W        W97497  13.240  32.884   3.427
44602W        W97498  33.971  15.378   1.666
44603W        W97499  14.063   7.452   2.642
44604W        W97500  31.098  21.788   1.803
44605W        W97501  30.421  23.398   8.666
44606W        W97502  27.150  19.821   0.456
44607W        W97503   4.639   3.992   0.485
44608W        W97504  24.555  18.730   2.287
44609W        W97505   8.292  15.779   8.615
44610W        W97506  12.089   5.106   9.128
44611W        W97507  26.221  26.451   2.372
44612W        W97508  28.539  32.508   8.715
44613W        W97509  35.716  18.050   3.137
44614W        W97510   8.403  19.711   9.577
44615W        W97511  20.131   2.069   7.731
44616W        W97512   5.489  30.936   9.929
44617W        W97513  10.442   0.072   0.113
44618W        W97514   4.209   4.889  10.204
44619W        W97515  11.080   9.660   6.853
44620W        W97516  32.741  12.261   2.263
44621W        W97517  21.105  30.628   9.599
44622W        W97518  13.368  32.709   8.386
44623W        W97519   6.238  35.813   1.102
44624W        W97520  25.742  26.190   0.694
44625W        W97521  32.269  31.902   0.774
44626W        W97522   4.352  35.193   1.276
44627W        W97523   0.622  14.103   9.550
44628W        W97524   0.566  35.405   0.861
44629W        W97525  35.620  33.923   2.713
44630W        W97526   1.360  21.817   3.595
44631W        W97527   9.737  26.261   8.874
44632W        W97528  15.084   4.563   0.622
44633W        W97529  15.297  25.675   7.865
44634W        W97530  10.877  28.408   7.599
44635W        W97531   4.356  22.448   9.313
44636W        W97532   5.162   7.194   2.935
44637W        W97533   9.357  29.520   8.510
44638W        W97534   4.907  11.629   1.258
44639W        W97535  22.736  29.382   2.022
44640W        W97536  14.627  29.268   3.814
44641W        W97537  19.256  14.897   0.768
44642W        W97538  17.819  15.538   2.686
44643W        W97539  32.211  34.725   9.202
44644W        W97540  30.915   5.789   0.890
44645W        W97541  35.374  28.677   2.913
44646W        W97542  20.514   7.759  10.263
44647W        W97543  28.036   9.260   1.115
44648W        W97544  27.631  31.201   7.784
44649W        W97545  34.128  23.206   9.928
44650W        W97546  25.402  21.790   0.691
44651W        W97547  35.460  12.853   9.442
44652W        W97548   5.713  25.266   2.740
44653W        W97549   5.904  20.533   0.636
44654W        W97550   9.862  15.477   1.985
44655W        W97551  27.932   5.050   8.006
44656W        W97552   3.175  20.474   8.925
44657W        W97553  32.458  18.964   0.556
44658W        W97554  31.134  32.111   1.218
44659W        W97555  24.963  32.161   0.847
44660W        W97556   7.613  10.072   2.316
44661W        W97557  27.349   1.410   2.849
44662W        W97558  33.906  29.918   8.483
44663W        W97559   4.204   0.720   9.739
44664W        W97560  16.332  12.573  10.049
44665W        W97561   3.795  22.935  10.174
44666W        W97562   9.959   3.441   2.516
44667W        W97563   4.907  23.453   8.342
44668W        W97564  33.172  15.247   8.842
44669W        W97565  24.767  12.608   1.947
44670W        W97566  35.061   2.981   9.385
44671W        W97567  35.921  20.566   1.855
44672W        W97568  20.712  28.214   3.090
44673W        W97569  10.798  18.741   2.493
44674W        W97570  19.244  14.005   0.591
44675W        W97571  18.091  22.354   9.229
44676W        W97572   5.409  17.991   1.846
44677W        W97573  22.687   8.267   8.917
44678W        W97574   2.923  18.503   1.082
44679W        W97575  32.152  31.233   1.212
44680W        W97576  10.786  16.518   1.791
44681W        W97577  35.318  12.250   3.209
44682W        W97578   8.506  19.750   8.325
44683W        W97579  22.999  26.129   2.228
44684W        W97580  24.279  27.164   1.752
44685W        W97581   8.074  18.600  10.238
44686W        W97582  29.419   3.649   8.366
44687W        W97583  22.542   4.675   7.978
44688W        W97584  14.783  29.693   8.810
44689W        W97585  14.162  19.686   2.453
44690W        W97586  22.589  14.502   0.618
44691W        W97587  16.163  10.584   3.315
44692W        W97588   6.577  16.280   3.444
44693W        W97589   2.782  17.899   8.631
44694W        W97590  34.112  15.845   1.376
44695W        W97591  21.706   6.987   0.184
44696W        W97592  19.898  17.185   9.492
44697W        W97593  33.600   7.080   0.939
44698W        W97594  17.146  23.014  10.334
44699W        W97595  14.765  27.666  10.321
44700W        W97596   2.260  13.164   8.613
44701W        W97597  16.922  26.648   0.590
44702W        W97598  34.013  18.419   9.180
44703W        W97599  20.131  21.191   1.523
44704W        W97600   2.429  31.093   7.329
44705W        W97601  22.821  20.831   1.519
44706W        W97602   6.890  10.565   7.603
44707W        W97603  16.233   8.053   9.711
44708W        W97604  22.627   6.655  10.147
44709W        W97605   8.234  17.255   1.888
44710W        W97606  25.093  31.233   9.358
44711W        W97607  13.706  24.241   8.018
44712W        W97608  22.500  14.935   2.356
44713W        W97609   7.312  10.966   7.786
44714W        W97610   2.523  10.745   9.002
44715W        W97611  14.956  15.383   9.289
44716W        W97612  33.629   0.472   1.528
44717W        W97613  14.994   3.666   0.249
44718W        W97614  27.541   6.292   1.485
44719W        W97615  13.341  17.998   9.057
44720W        W97616   4.570  12.208   9.548
44721W        W97617   6.071  11.772   7.762
44722W        W97618   7.497  23.211   6.968
44723W        W97619  24.538  28.807   8.595
44724W        W97620  22.973   9.293   3.238
44725W        W97621  21.429  31.717   3.643
44726W        W97622  20.476   7.654   2.078
44727W        W97623  16.637   6.131   1.192
44728W        W97624  19.510   4.597   1.960
44729W        W97625  18.634  10.501   0.305
44730W        W97626  15.879   4.812   0.259
44731W        W97627  25.875  23.158   2.345
44732W        W97628  13.674   0.973   2.581
44733W        W97629  26.269  10.985   1.523
44734W        W97630   6.179  10.713   9.615
44735W        W97631  11.294   8.717   8.002
44736W        W97632  16.190  23.708   8.740
44737W        W97633  18.877  10.636   8.955
44738W        W97634  29.515  13.352   0.981
44739W        W97635   7.691  35.271   0.330
44740W        W97636   3.532   8.281   1.199
44741W        W97637  20.254  27.307   1.849
44742W        W97638  30.708  31.706   9.132
44743W        W97639  26.371   3.920   2.913
44744W        W97640  34.862  24.332   3.973
44745W        W97641  26.045  28.923   1.578
44746W        W97642  24.436  22.994   3.002
44747W        W97643  24.454  16.209   8.640
44748W        W97644  15.138  16.099   3.445
44749W        W97645  11.252  23.119   9.983
44750W        W97646  24.409   2.280   2.435
44751W        W97647   4.746  32.066   9.951
44752W        W97648  31.216  10.346   0.528
44753W        W97649  11.469  15.745   1.571
44754W        W97650  18.506   2.408   9.720
44755W        W97651   2.740  22.709   3.184
44756W        W97652  26.731   0.780   3.043
44757W        W97653   1.892  25.035   8.579
44758W        W97654  13.076   9.698   8.799
44759W        W97655   9.850  15.104   2.886
44760W        W97656   9.207  10.534   2.022
44761W        W97657  22.779   8.319   9.562
44762W        W97658  17.635  35.409   1.939
44763W        W97659   2.212  23.945   7.791
44764W        W97660  15.635  15.274   9.375
44765W        W97661  15.106  32.850   0.075
44766W        W97662  10.306  33.102  10.068
44767W        W97663  35.448  12.501   3.780
44768W        W97664   9.766   0.155   0.635
44769W        W97665  24.208  19.121   1.926
44770W        W97666   0.880  32.395   8.460
44771W        W97667  17.496  31.011   3.136
44772W        W97668  17.166  24.977   0.676
44773W        W97669  29.088  28.037   0.212
44774W        W97670   3.712  35.991   2.749
44775W        W97671  11.353   4.440   8.328
44776W        W97672  23.475   6.501   3.564
44777W        W97673  20.248  33.162   8.125
44778W        W97674  23.829  13.678   1.227
44779W        W97675  13.714  35.658   7.248
44780W        W97676  28.102   3.001   0.174
44781W        W97677  32.692  18.122   3.246
44782W        W97678   4.307  33.973   1.207
44783W        W97679   6.468  27.599   0.067
44784W        W97680   0.308   0.599   1.577
44785W        W97681  19.516   4.786   8.452
44786W        W97682  27.293  14.838   2.603
44787W        W97683  23.829   7.784   0.641
44788W        W97684  26.423  31.435   9.477
44789W        W97685  26.748  33.305   7.308
44790W        W97686  16.422  20.127   8.340
44791W        W97687  17.290  23.241   2.616
44792W        W97688  13.084  27.995   1.562
44793W        W97689  18.239   7.467  10.132
44794W        W97690  26.885  28.193   8.492
44795W        W97691   1.655  12.352   2.057
44796W        W97692  23.891  27.327   2.230
44797W        W97693  15.737   8.351   8.768
44798W        W97694  23.859  15.651   7.528
44799W        W97695  30.299  18.424   3.332
44800W        W97696  22.367  24.936   7.898
44801W        W97697  26.200  35.857   1.464
44802W        W97698  20.658  20.308   0.446
44803W        W97699  13.848   8.871   2.006
44804W        W97700  19.699  31.685   0.514
44805W        W97701  35.725   4.642   0.501
44806W        W97702   5.636  25.945   8.600
44807W        W97703  21.182  21.352   3.780
44808W        W97704  10.095  31.020   2.192
44809W        W97705  17.352  24.773   8.506
44810W        W97706   4.572  15.876   1.866
44811W        W97707   2.680  18.783   8.905
44812W        W97708  12.801  19.862   1.114
44813W        W97709   4.053   5.213   8.906
44814W        W97710   6.045  25.915   9.000
44815W        W97711  15.773  32.756   9.076
44816W        W97712  28.348  33.546   8.732
44817W        W97713  20.357  16.076   8.014
44818W        W97714   5.937   8.990   8.089
44819W        W97715  12.821  30.352   3.687
44820W        W97716   0.163  29.800   2.305
44821W        W97717  16.282   4.361  10.088
44822W        W97718   2.365  14.785   1.147
44823W        W97719  16.150  23.115   1.003
44824W        W97720  24.790   3.436   2.334
44825W        W97721  32.369   6.657   2.136
44826W        W97722  11.560   9.459   1.641
44827W        W97723  12.997  21.917   2.922
44828W        W97724  22.534  18.239   0.955
44829W        W97725   9.260  26.652   2.504
44830W        W97726  20.660  28.778   0.636
44831W        W97727  31.205   0.001   9.556
44832W        W97728  31.520   8.087   0.056
44833W        W97729  26.812   6.296   9.450
44834W        W97730   2.489  31.306   0.943
44835W        W97731  15.487  15.826   2.484
44836W        W97732  35.603  28.815   2.429
44837W        W97733  20.512  32.263   9.006
44838W        W97734  27.899  29.694   9.539
44839W        W97735  32.929  20.278   9.135
44840W        W97736  31.198   6.776   0.767
44841W        W97737   5.324  22.622   3.152
44842W        W97738  25.570  27.993   2.299
44843W        W97739  33.798  34.319   9.964
44844W        W97740  24.583   4.948   9.064
44845W        W97741   8.094  14.955   7.394
44846W        W97742  24.647  33.113   1.762
44847W        W97743  28.950  16.431   1.688
44848W        W97744   1.941  35.472   1.640
44849W        W97745   5.612  22.757   0.304
44850W        W97746   2.916   1.321   1.195
44851W        W97747  15.299  33.368   2.437
44852W        W97748   8.264  27.350   3.052
44853W        W97749  11.421  35.487  10.106
44854W        W97750  26.202   3.290   0.825
44855W        W97751  34.269   2.686   9.629
44856W        W97752  19.368  34.478   2.431
44857W        W97753  34.939  29.008   0.928
44858W        W97754  12.938   0.409   8.853
44859W        W97755   1.208  15.294   8.508
44860W        W97756  20.119  22.282   8.747
44861W        W97757   4.596   6.935   7.781
44862W        W97758  25.215   9.402   3.596
44863W        W97759  28.837  34.261   1.437
44864W        W97760  16.644  15.166   1.077
44865W        W97761   7.064  21.507   2.001
44866W        W97762  14.025   4.657   8.450
44867W        W97763  19.280  13.345   9.773
44868W        W97764  24.487  24.741   9.258
44869W        W97765   3.578  20.018   7.582
44870W        W97766   0.506   0.048   1.599
44871W        W97767  21.373   9.126   8.621
44872W        W97768  32.274   5.695   7.947
44873W        W97769  23.516  10.779   0.991
44874W        W97770   2.025   2.970   9.253
44875W        W97771   7.301  21.840   8.105
44876W        W97772  10.069  10.165   0.117
44877W        W97773  31.341  26.360  10.041
44878W        W97774   8.538   0.717   8.414
44879W        W97775  32.609   9.318  10.323
44880W        W97776  12.898  24.186   7.636
44881W        W97777  24.937  22.715   9.663
44882W        W97778  21.379  34.948   8.686
44883W        W97779  24.533  26.773   1.465
44884W        W97780  24.299   3.414   9.665
44885W        W97781  25.437  32.484   9.261
44886W        W97782  12.255  14.298   2.231
44887W        W97783   2.288  30.993  10.262
44888W        W97784  11.163  31.833   8.197
44889W        W97785  23.833  31.229   1.691
44890W        W97786  13.055  35.353   9.174
44891W        W97787   8.700  24.648   7.990
44892W        W97788  16.772  16.381   1.851
44893W        W97789  35.137  13.786   0.365
44894W        W97790   7.865  18.270   0.955
44895W        W97791  19.185  34.704   0.968
44896W        W97792  26.967   9.594   2.123
44897W        W97793   0.383   3.223   7.398
44898W        W97794  11.292  19.816  10.038
44899W        W97795  34.283  21.318   1.661
44900W        W97796  21.517  35.718   0.746
44901W        W97797  20.202  26.964   7.153
44902W        W97798  30.252  25.312   8.359
44903W        W97799  10.400   6.823   9.088
44904W        W97800  22.358  31.628   1.425
44905W        W97801  32.255  35.463   0.584
44906W        W97802  32.245  14.512   1.042
44907W        W97803   3.641  12.376   0.292
44908W        W97804  11.644   3.157   8.672
44909W        W97805  32.124   7.105   7.110
44910W        W97806  30.461  18.960   2.718
44911W        W97807  11.597   7.868   8.433
44912W        W97808  20.215   8.614   9.421
44913W        W97809  24.466   9.313   8.046
44914W        W97810   8.613  18.471   8.349
44915W        W97811  28.784   4.993   9.373
44916W        W97812  30.849  23.680  10.267
44917W        W97813  15.106  22.463   1.860
44918W        W97814   8.723  12.323   3.493
44919W        W97815  34.721  22.133   9.011
44920W        W97816   9.678  31.557   8.633
44921W        W97817  10.409   6.493   9.872
44922W        W97818  28.623  26.982   9.398
44923W        W97819  29.906  20.444   8.856
44924W        W97820  24.953   9.975   8.540
44925W        W97821  15.056  12.519   8.376
44926W        W97822   6.781   3.630   1.788
44927W        W97823   4.666  26.061   9.477
44928W        W97824  28.477  33.546   2.484
44929W        W97825  25.412   5.965   9.812
44930W        W97826   4.801  17.681  10.291
44931W        W97827  22.558   6.883   2.504
44932W        W97828  30.985  18.027   1.519
44933W        W97829  15.165   9.939   9.599
44934W        W97830   9.911   8.717   0.978
44935W        W97831   2.749  28.476   8.384
44936W        W97832   2.599  10.135   8.466
44937W        W97833  13.243  23.509   0.611
44938W        W97834  34.369   8.434   0.427
44939W        W97835   2.540   7.690   2.171
44940W        W97836  17.190  12.149   8.909
44941W        W97837  20.286  17.171   1.819
44942W        W97838  13.051  28.499   9.568
44943W        W97839   1.085  28.674   0.167
44944W        W97840  16.107   5.111   3.353
44945W        W97841   6.178   3.404   0.201
44946W        W97842  31.273   9.657   1.802
44947W        W97843  27.764   4.641   9.035
44948W        W97844  13.046   0.823   7.407
44949W        W97845   4.615   4.033   2.654
44950W        W97846  27.705  23.753   2.520
44951W        W97847  23.484  15.551  10.064
44952W        W97848   0.869   3.778   2.287
44953W        W97849  21.876  11.826   2.249
44954W        W97850   8.125  31.847   9.678
44955W        W97851  26.566  11.082   2.572
44956W        W97852  29.556  26.305   7.938
44957W        W97853  23.279  26.417   2.559
44958W        W97854   5.979  15.554   2.333
44959W        W97855   6.149  20.762   3.322
44960W        W97856   7.026   1.342   8.447
44961W        W97857   2.694  15.050   8.979
44962W        W97858  27.737  35.143   1.402
44963W        W97859  26.223  19.417  10.146
44964W        W97860   3.402  15.586  10.089
44965W        W97861  12.460  23.050   0.774
44966W        W97862  35.383  35.440   8.535
44967W        W97863  26.770  30.680   8.826
44968W        W97864   2.908   3.376   9.184
44969W        W97865  21.043   5.703   2.273
44970W        W97866  17.735  32.522   8.238
44971W        W97867  20.565  19.404   9.114
44972W        W97868   3.125  11.146   1.039
44973W        W97869  20.679  27.670   0.467
44974W        W97870  10.425  22.808   9.563
44975W        W97871  14.757   7.827   9.321
44976W        W97872  24.775  12.513   7.874
44977W        W97873  23.619   5.448   9.904
44978W        W97874   4.882  15.327   8.694
44979W        W97875  17.779   1.710   8.896
44980W        W97876  30.316   2.097   3.347
44981W        W97877   4.141  27.087   0.426
44982W        W97878  12.134  15.776   2.348
44983W        W97879   9.100  17.153   9.588
44984W        W97880  24.199  17.765   0.972
44985W        W97881  14.062   3.498   0.204
44986W        W97882  19.328  11.028   0.264
44987W        W97883   0.595  28.101   0.788
44988W        W97884  26.239  21.349   9.402
44989W        W97885   2.340  21.989   8.563
44990W        W97886  27.550   8.388  10.192
44991W        W97887  31.702  28.183   8.438
44992W        W97888  25.507   7.812   0.180
44993W        W97889   2.205  25.852   0.894
44994W        W97890  32.514  29.374   9.055
44995W        W97891  33.818  25.637   9.544
44996W        W97892  20.356  30.834   9.341
44997W        W97893  16.193  12.781   0.533
44998W        W97894  31.953  10.701   9.593
44999W        W97895  27.434   4.422   8.509
45000W        W97896   6.226   7.777   0.049
45001W        W97897  16.156   5.810   8.419
45002W        W97898   9.456   1.247   2.878
45003W        W97899   6.864  27.219   1.003
45004W        W97900   6.595   0.122   0.285
45005W        W97901  10.133   6.614   8.113
45006W        W97902  11.052   8.474   0.623
45007W        W97903   5.466  22.710   9.776
45008W        W97904   7.855  27.871   3.342
45009W        W97905  10.115   0.338  10.093
45010W        W97906   9.098  21.647   8.396
45011W        W97907  30.137  12.170   8.376
45012W        W97908  17.818  10.513   8.976
45013W        W97909  30.058  21.207   9.286
45014W        W97910  25.927  30.633   2.174
45015W        W97911  11.943  15.719   9.382
45016W        W97912   0.667  27.523   0.339
45017W        W97913  13.340  24.193   7.076
45018W        W97914  18.848  20.014   0.764
45019W        W97915  16.095  26.658   2.023
45020W        W97916  30.498  17.323   9.763
45021W        W97917  18.788  31.140   1.474
45022W        W97918  24.813  35.889  10.140
45023W        W97919   2.064  21.744   0.537
45024W        W97920   9.891  14.480   2.972
45025W        W97921  20.926  18.452   9.031
45026W        W97922  13.101  29.957   8.392
45027W        W97923  11.309  26.460   0.266
45028W        W97924  28.222  35.808   3.365
45029W        W97925  24.616   8.593   1.692
45030W        W97926  34.496  15.220   0.230
45031W        W97927  36.013  33.282   1.929
45032W        W97928   0.662  13.224   0.279
45033W        W97929  34.374  19.237   3.137
45034W        W97930   2.344  25.854   2.712
45035W        W97931  23.318  10.028   8.278
45036W        W97932  34.247   0.582  10.198
45037W        W97933  11.433   0.312   9.929
45038W        W97934  24.534  35.563   2.244
45039W        W97935  16.494  18.117   8.244
45040W        W97936  24.017   4.761   1.232
45041W        W97937   4.436   0.160   0.211
45042W        W97938  15.431  21.119  10.186
45043W        W97939  18.064  16.730   1.751
45044W        W97940  29.357  32.954   9.232
45045W        W97941  17.786  25.842   2.641
45046W        W97942  22.325  32.043   8.355
45047W        W97943   1.371  17.075   7.880
45048W        W97944   1.980  18.877   0.588
45049W        W97945  19.877   8.484   9.991
45050W        W97946  32.951   0.700   8.359
45051W        W97947  24.342  11.287  10.128
45052W        W97948   2.989  27.872   1.713
45053W        W97949  10.039  31.181   0.776
45054W        W97950  25.693   9.699   2.110
45055W        W97951  21.588  28.654   9.899
45056W        W97952  15.119  22.271   8.943
45057W        W97953   6.531  31.001   8.006
45058W        W97954  16.091   9.025   8.413
45059W        W97955   7.019   5.798  10.155
45060W        W97956  35.895  15.292   9.408
45061W        W97957  10.005  23.115   0.680
45062W        W97958  10.604  26.490   1.395
45063W        W97959  17.137   1.084   6.911
45064W        W97960   3.199  16.090   1.674
45065W        W97961  27.474  21.196   1.227
45066W        W97962  20.267  34.556   2.058
45067W        W97963  26.576  22.467   8.311
45068W        W97964  13.321   9.382   1.516
45069W        W97965  19.845  35.237   2.836
45070W        W97966  22.163   8.056   0.296
45071W        W97967  24.230   5.067   7.249
45072W        W97968  29.884  31.300   9.596
45073W        W97969   0.462  21.340   1.255
45074W        W97970  31.695   6.318   9.837
45075W        W97971  29.305  35.308   0.254
45076W        W97972  19.145  20.915   9.064
45077W        W97973  14.173  28.506  10.283
45078W        W97974  21.014  28.678   3.719
45079W        W97975  35.456  19.415   1.958
45080W        W97976  23.967   5.349   9.542
45081W        W97977  14.359  20.512   0.524
45082W        W97978  29.221   3.698   0.398
45083W        W97979   4.362  28.510   3.132
45084W        W97980  16.269  17.778   2.758
45085W        W97981   0.505   9.345   8.588
45086W        W97982  14.243   8.393   2.503
45087W        W97983   0.811  34.906   8.955
45088W        W97984   5.532  20.583   2.646
45089W        W97985  32.823  28.361   1.979
45090W        W97986  12.626   7.654   1.313
45091W        W97987  14.542  31.217   9.288
45092W        W97988   6.486   6.767   0.317
45093W        W97989  35.149  22.013   9.218
45094W        W97990   6.399   8.698   0.814
45095W        W97991   7.333  35.401   0.034
45096W        W97992   9.205  12.036   2.241
45097W        W97993  15.986   1.283   7.522
45098W        W97994  17.906  28.044   0.054
45099W        W97995  34.536  29.926   9.047
45100W        W97996  24.173   4.462   8.497
45101W        W97997   6.441  21.468   0.101
45102W        W97998   6.299   4.294   0.139
45103W        W97999  33.469  18.126   8.184
45104W        W98000   4.275  12.989   1.992
45105W        W98001   1.767  34.989   0.888
45106W        W98002  28.979  16.107   3.008
45107W        W98003  35.676  35.548   0.350
45108W        W98004  22.838  22.161   8.623
45109W        W98005  20.897   1.145   9.055
45110W        W98006  17.084  13.125   2.436
45111W        W98007  22.181  35.224  10.061
45112W        W98008  24.558  27.366   9.523
45113W        W98009  28.920  34.012   2.887
45114W        W98010  24.517  21.332   8.562
45115W        W98011  21.863  29.788   1.682
45116W        W98012  14.011   7.604   8.856
45117W        W98013  17.207  15.902   0.039
45118W        W98014   5.352  13.950   1.694
45119W        W98015  19.274  11.032   3.282
45120W        W98016  24.933   7.046   8.960
45121W        W98017  23.905  28.573   2.004
45122W        W98018  30.710   8.132   8.970
45123W        W98019   3.638  14.400   8.244
45124W        W98020  33.219  32.379   0.726
45125W        W98021  30.653   4.554   2.481
45126W        W98022  24.344   7.165   1.374
45127W        W98023  16.889  23.484   7.277
45128W        W98024   4.442   0.114   8.050
45129W        W98025  16.912  20.366   0.904
45130W        W98026  29.022  30.508   9.439
45131W        W98027   2.753  15.959   1.389
45132W        W98028  23.813  35.001   7.964
45133W        W98029   6.946  22.143   2.532
45134W        W98030  16.096  21.264   1.619
45135W        W98031  19.574  28.862   8.305
45136W        W98032  22.034  32.759   9.693
45137W        W98033  24.549  31.768   1.736
45138W        W98034  20.740   4.884   8.108
45139W        W98035   9.268  26.697   9.222
45140W        W98036  13.030   0.039   7.793
45141W        W98037  25.401  20.709   8.637
45142W        W98038  35.932   1.869   2.597
45143W        W98039   7.742   1.038   7.815
45144W        W98040  16.708   7.398   0.983
45145W        W98041  29.885  30.666   9.452
45146W        W98042  13.495  14.129   8.374
45147W        W98043  12.481  23.494   8.805
45148W        W98044  20.074  31.613   2.210
45149W        W98045   8.538   8.283   8.298
45150W        W98046   6.428  24.375  10.158
45151W        W98047   5.400  16.562   2.339
45152W        W98048  21.173   1.846   8.448
45153W        W98049  35.827  23.179   0.709
45154W        W98050  15.029  33.835   7.756
45155W        W98051  31.930  15.090   9.671
45156W        W98052   8.655  19.295   9.314
45157W        W98053  11.189  18.961   9.836
45158W        W98054  22.324   1.976   8.741
45159W        W98055  12.110  14.120   8.026
45160W        W98056  16.554   6.884   2.584
45161W        W98057   7.697  17.647   9.421
45162W        W98058  13.434  18.462   9.198
45163W        W98059   9.352  16.794   8.155
45164W        W98060  29.602  16.311   9.574
45165W        W98061  34.436  28.740   2.378
45166W        W98062   0.160  10.256  10.216
45167W        W98063  17.957  15.908   9.706
45168W        W98064   6.619  12.172   8.550
45169W        W98065  34.803  32.925   0.114
45170W        W98066  24.623  34.208   2.133
45171W        W98067  21.090  16.092   0.355
45172W        W98068   1.597   5.763   1.604
45173W        W98069  15.855  31.625   9.148
45174W        W98070  30.756  12.183   0.643
45175W        W98071  22.453  27.442   2.713
45176W        W98072  31.581  12.849   3.625
45177W        W98073  30.578   2.781   8.203
45178W        W98074   2.829   0.600   8.205
45179W        W98075  18.257  13.335   1.694
45180W        W98076   6.772  17.337   8.853
45181W        W98077  30.559  29.761  10.338
45182W        W98078  29.899  31.881   9.470
45183W        W98079  33.053  24.164   1.997
45184W        W98080  12.727  10.361   7.605
45185W        W98081   9.787   2.952   8.842
45186W        W98082  28.530   0.316   0.841
45187W        W98083   6.160  25.100   0.371
45188W        W98084  20.800  29.548   8.201
45189W        W98085  20.173  27.690   9.297
45190W        W98086  10.778  31.337   0.174
45191W        W98087   6.598   1.460   1.919
45192W        W98088  13.026  20.671  10.199
45193W        W98089   2.634  30.539   2.681
45194W        W98090   4.173  18.939   0.279
45195W        W98091  25.959   7.166   9.534
45196W        W98092  34.192  35.494   1.382
45197W        W98093  20.098  22.564   1.570
45198W        W98094  17.618  26.265   7.996
45199W        W98095   4.487  26.231   9.988
45200W        W98096  22.058  22.497   1.183
45201W        W98097  20.642   3.762   2.979
45202W        W98098  18.160  26.560   3.145
45203W        W98099   2.970   2.261   1.863
45204W        W98100  35.626  11.690   0.938
45205W        W98101  19.164   1.540   2.529
45206W        W98102   7.529   9.917   9.343
45207W        W98103  14.836  28.530   9.655
45208W        W98104  24.920  17.350   8.429
45209W        W98105  10.674  20.846   2.438
45210W        W98106  20.993  21.429  10.235
45211W        W98107  29.665  25.377   9.568
45212W        W98108  26.092   8.881   9.043
45213W        W98109  12.316  24.370  10.321
45214W        W98110  33.847   5.521   9.139
45215W        W98111   0.244  19.366   3.206
45216W        W98112  11.995  29.292   9.841
45217W        W98113  17.373   3.347   2.845
45218W        W98114  14.130  21.737   9.626
45219W        W98115  31.225   8.229   1.625
45220W        W98116  19.471  16.580   7.535
45221W        W98117  28.444  17.724   0.886
45222W        W98118   2.242   4.256   2.421
45223W        W98119  26.115   1.558  10.197
45224W        W98120  32.653  28.453   8.274
45225W        W98121  22.347  14.223   7.744
45226W        W98122   7.215  18.396   2.701
45227W        W98123   1.144  35.037   1.105
45228W        W98124  21.006   9.431   3.000
45229W        W98125   1.663  16.070   0.767
45230W        W98126  24.576   5.152  10.273
45231W        W98127  15.387  31.281   2.249
45232W        W98128   1.122  29.470   9.398
45233W        W98129  18.749   7.221   0.724
45234W        W98130  13.131   7.731   1.304
45235W        W98131   4.303  12.422  10.055
45236W        W98132  33.169  27.945   9.510
45237W        W98133  17.582  13.507   8.127
45238W        W98134  13.142   2.387   9.560
45239W        W98135  21.232   6.975   0.816
45240W        W98136  33.399  11.548   0.973
45241W        W98137  17.522  26.009   8.925
45242W        W98138  28.050   4.134   1.169
45243W        W98139  12.309   3.071   8.744
45244W        W98140  27.433  20.689   1.231
45245W        W98141  12.674  15.228   2.300
45246W        W98142  29.964  22.471   9.494
45247W        W98143  12.271   2.251   0.407
45248W        W98144  10.460  14.601   1.561
45249W        W98145  14.230  12.324  10.130
45250W        W98146  19.200   8.658   2.670
45251W        W98147  28.092  18.891   1.505
45252W        W98148  34.688  21.970   0.045
45253W        W98149   6.601  26.863   1.411
45254W        W98150  33.393  10.594   0.049
45255W        W98151   7.810   1.816   0.520
45256W        W98152  14.371   6.381   0.842
45257W        W98153   9.579   8.990   9.231
45258W        W98154  21.520   4.134   8.415
45259W        W98155   6.823  18.707   9.526
45260W        W98156  14.138  20.161   8.868
45261W        W98157   4.298  33.118   1.343
45262W        W98158   6.186   5.877   9.184
45263W        W98159  10.632  22.336   1.559
45264W        W98160   1.022  33.882   8.087
45265W        W98161   9.261  18.022   2.424
45266W        W98162  26.986   2.484   1.125
45267W        W98163  26.639  13.381   0.706
45268W        W98164  31.237  12.231   8.133
45269W        W98165   8.114  10.461   7.991
45270W        W98166   3.876  27.252   8.660
45271W        W98167  21.883   2.004   9.587
45272W        W98168  26.417  11.409   7.243
45273W        W98169   2.422  20.967   2.677
45274W        W98170   1.578  12.489   0.533
45275W        W98171  10.618  28.376   8.101
45276W        W98172  23.698  28.124   1.790
45277W        W98173   3.333  20.013   9.270
45278W        W98174  33.218  20.109   1.418
45279W        W98175   6.863  28.767   8.206
45280W        W98176  24.409  12.753   8.650
45281W        W98177   9.507  10.412   1.629
45282W        W98178  28.703  27.204   3.124
45283W        W98179  35.366  15.346   2.089
45284W        W98180   7.871  25.384   1.583
45285W        W98181  26.856   9.228   1.263
45286W        W98182  10.831  12.248   0.260
45287W        W98183  35.205  14.655  10.240
45288W        W98184  15.493   4.739   9.370
45289W        W98185  18.685  31.022  10.179
45290W        W98186   4.079  16.212   1.429
45291W        W98187  15.424   7.373   1.374
45292W        W98188  19.694  13.608   1.250
45293W        W98189  15.589  26.825   0.141
45294W        W98190  20.392  14.116  10.326
45295W        W98191  10.218  28.849   0.205
45296W        W98192  34.800  13.151   3.352
45297W        W98193  18.819  14.174   1.299
45298W        W98194  30.647  19.799   1.964
45299W        W98195  27.263  16.492   2.116
45300W        W98196  20.831  26.927   2.052
45301W        W98197  21.488  32.896   8.203
45302W        W98198  24.933   8.112   7.898
45303W        W98199  23.709  21.655   3.753
45304W        W98200   5.740   5.850   8.761
45305W        W98201  31.340  26.071   2.640
45306W        W98202  30.361  32.704   8.379
45307W        W98203  16.414   9.578   0.019
45308W        W98204   1.362  13.642   0.847
45309W        W98205  26.531  34.404   0.463
45310W        W98206   7.451   6.080   2.327
45311W        W98207   4.004  12.759   8.826
45312W        W98208  12.383   3.976   9.963
45313W        W98209  33.402  27.071   9.012
45314W        W98210  16.761  13.410   1.407
45315W        W98211  13.922  25.625   7.904
45316W        W98212  21.524  16.495   2.997
45317W        W98213  22.792  31.146   2.115
45318W        W98214  26.836   0.210   3.670
45319W        W98215   5.478  26.198   0.751
45320W        W98216  31.009  21.526   7.304
45321W        W98217  12.149   4.826   7.418
45322W        W98218   8.996  22.458   2.209
45323W        W98219  35.497  18.660   0.630
45324W        W98220   9.787  18.922   7.857
45325W        W98221  32.490  12.722   2.324
45326W        W98222  21.920   1.195   1.481
45327W        W98223  25.042  32.716   1.311
45328W        W98224  10.839   6.006   2.251
45329W        W98225   2.049  15.247   1.385
45330W        W98226  21.248   8.909   1.849
45331W        W98227   5.719  28.806  10.014
45332W        W98228  24.574   3.112   7.708
45333W        W98229  29.420  30.196  10.085
45334W        W98230   9.503   1.001   0.156
45335W        W98231  14.467  29.320   2.186
45336W        W98232   0.500  15.729   0.876
45337W        W98233  26.477   5.124   2.868
45338W        W98234   4.451  11.330   9.815
45339W        W98235   8.568   3.190   8.649
45340W        W98236   1.343  25.719   2.302
45341W        W98237   8.470   2.404   9.909
45342W        W98238  16.704  14.088   2.219
45343W        W98239  23.805  21.284   1.637
45344W        W98240  18.356  20.257   9.550
45345W        W98241   6.731  12.278   9.504
45346W        W98242  29.849  28.706   0.340
45347W        W98243  11.914  23.359   9.609
45348W        W98244  20.958  29.414   1.309
45349W        W98245   0.455  30.728   2.468
45350W        W98246   1.095  26.636   8.955
45351W        W98247  26.459   3.480   1.795
45352W        W98248  26.876   0.898   1.244
45353W        W98249  10.518  32.853   1.098
45354W        W98250  32.956  27.592   1.192
45355W        W98251   3.883  24.209   7.909
45356W        W98252  22.656   4.349  10.137
45357W        W98253  12.811   1.124   2.636
45358W        W98254  33.458   9.203   1.515
45359W        W98255   9.943  15.655   8.302
45360W        W98256  31.715   4.693   8.818
45361W        W98257   6.247  25.332   1.772
45362W        W98258  10.915  18.216   9.100
45363W        W98259  30.007  33.660   8.189
45364W        W98260  28.543   1.879   1.593
45365W        W98261  29.241   3.919   3.487
45366W        W98262  34.994   6.088   9.682
45367W        W98263   1.833  30.022   0.601
45368W        W98264   1.862  20.489   2.309
45369W        W98265  22.947   5.920   4.007
45370W        W98266  26.690   5.855   9.205
45371W        W98267   9.089  15.056   1.493
45372W        W98268  19.473   9.616   8.144
45373W        W98269  28.733  33.635   0.543
45374W        W98270   4.673  32.281   0.894
45375W        W98271  11.006  21.464   8.040
45376W        W98272  30.437   8.585   7.675
45377W        W98273   1.408  17.389   9.230
45378W        W98274  26.954  32.882   0.235
45379W        W98275  30.234  35.313   1.140
45380W        W98276  31.995  17.748   3.211
45381W        W98277  12.103  26.248   3.132
45382W        W98278  22.275   0.879   1.096
45383W        W98279  17.122  23.520  10.085
45384W        W98280  31.590   8.588   1.231
45385W        W98281  14.754  16.293   1.547
45386W        W98282   5.353  30.826   2.529
45387W        W98283  33.764  19.200   9.202
45388W        W98284  23.301  22.894   9.743
45389W        W98285   3.327  34.366   0.684
45390W        W98286  33.492  22.555   9.465
45391W        W98287  31.078  19.963   8.626
45392W        W98288  22.629  28.927   9.076
45393W        W98289  16.757  28.540   1.343
45394W        W98290  30.223   3.274   9.426
45395W        W98291  35.922   2.795   8.751
45396W        W98292  12.301  33.946  10.216
45397W        W98293  16.650  21.805   7.855
45398W        W98294  21.148  35.453   2.300
45399W        W98295  23.339   4.789   0.661
45400W        W98296  18.369  31.129   9.827
45401W        W98297  13.784  27.867  10.118
45402W        W98298   7.509   0.317   0.498
45403W        W98299  14.635  12.859   0.391
45404W        W98300  32.719  11.893   0.503
45405W        W98301   3.659  16.232   0.289
45406W        W98302  34.589  29.335   3.650
45407W        W98303   4.510  35.442   7.949
45408W        W98304  34.603  14.481   0.627
45409W        W98305   7.692  16.315   1.959
45410W        W98306   1.434  35.030   3.460
45411W        W98307   7.632  21.311   1.650
45412W        W98308  26.772  25.131   1.197
45413W        W98309  16.441  20.110   0.084
45414W        W98310  13.221  10.546   2.429
45415W        W98311   3.405  27.851   3.191
45416W        W98312  21.655  28.869   9.402
45417W        W98313  15.743  32.603   7.893
45418W        W98314   1.245   0.562  10.169
45419W        W98315  29.648   8.705   9.958
45420W        W98316  34.862  35.624   8.461
45421W        W98317  34.710   9.560   7.584
45422W        W98318  16.260   6.610   9.179
45423W        W98319   9.383  32.642   0.331
45424W        W98320   3.380  15.457   9.395
45425W        W98321  19.792  21.539   7.922
45426W        W98322  14.495  14.210   2.640
45427W        W98323  16.197   0.971   1.005
45428W        W98324   6.473  16.826   9.691
45429W        W98325  15.395  17.529   1.425
45430W        W98326  20.506   8.248  10.298
45431W        W98327   2.417   9.073  10.006
45432W        W98328  33.883  27.955   7.654
45433W        W98329   9.382  24.167   1.130
45434W        W98330  23.129   5.769   9.069
45435W        W98331  21.446  22.621   9.703
45436W        W98332  31.514  30.279   1.342
45437W        W98333   8.512  29.379   7.107
45438W        W98334   6.761  10.552   1.457
45439W        W98335  24.441  35.108   8.964
45440W        W98336  14.252  11.285   2.698
45441W        W98337  31.416   5.456   9.735
45442W        W98338  26.988  34.047   0.973
45443W        W98339   3.769  31.840   7.554
45444W        W98340  28.481  16.149   9.098
45445W        W98341  20.944  24.241   0.927
45446W        W98342  35.502  10.067   9.063
45447W        W98343  21.161  31.245   8.818
45448W        W98344   3.277  31.884  10.142
45449W        W98345  26.223  22.433   0.262
45450W        W98346  31.015  10.013   8.140
45451W        W98347   8.552  17.875   8.619
45452W        W98348   3.062   1.883   2.258
45453W        W98349   2.336  35.508   0.828
45454W        W98350  26.507  18.026   1.446
45455W        W98351  26.790  29.359   8.882
45456W        W98352  35.741   6.922   9.298
45457W        W98353  10.488   0.409   9.529
45458W        W98354   6.291  14.978   1.235
45459W        W98355  19.791  12.795   1.575
45460W        W98356  17.289  33.691   8.762
45461W        W98357   9.553   6.891   9.323
45462W        W98358   2.457  28.519   7.053
45463W        W98359  11.960  11.213   0.937
45464W        W98360   1.787  20.824   0.404
45465W        W98361  12.297  12.277   0.802
45466W        W98362  18.229  11.583   0.098
45467W        W98363  12.870   7.912   3.063
45468W        W98364  15.366  28.234   0.412
45469W        W98365  15.471  30.201   1.669
45470W        W98366  23.004  25.293   7.335
45471W        W98367  27.870  32.984   0.827
45472W        W98368  25.058  27.542   8.776
45473W        W98369  31.071  26.195   7.727
45474W        W98370  24.133  15.133   9.711
45475W        W98371  20.098   5.507   8.651
45476W        W98372  32.150  34.784   8.659
45477W        W98373  31.040  10.443   6.957
45478W        W98374   7.555  24.051   0.828
45479W        W98375   7.759  11.016   1.972
45480W        W98376  14.027  33.206   3.466
45481W        W98377  11.640  11.177   2.870
45482W        W98378  15.075  15.941   1.349
45483W        W98379  34.132  27.201   3.185
45484W        W98380  30.639  32.811   2.337
45485W        W98381  30.020  12.314   1.428
45486W        W98382  23.819  16.010   2.408
45487W        W98383   9.538   7.166   2.063
45488W        W98384  32.351  18.066  10.036
45489W        W98385  13.757  21.563   0.854
45490W        W98386  24.388  23.634   0.563
45491W        W98387   9.238   2.502   2.174
45492W        W98388  35.410  21.237   9.803
45493W        W98389  10.928  34.937   9.005
45494W        W98390   4.659  26.263   1.860
45495W        W98391   9.689  34.093   2.845
45496W        W98392  34.805  14.978   2.481
45497W        W98393  32.785  19.251   8.340
45498W        W98394  24.977  35.210   8.989
45499W        W98395  26.578  12.434   8.026
45500W        W98396  12.292   1.339   9.447
45501W        W98397   9.285   7.955   3.596
45502W        W98398   2.573   3.714  10.176
45503W        W98399  17.746  28.550   2.370
45504W        W98400  34.714  30.426   9.014
45505W        W98401  24.723  16.164   3.283
45506W        W98402  35.699  33.490   7.386
45507W        W98403  28.624  35.690   0.965
45508W        W98404  25.929   9.910   8.291
45509W        W98405   8.176   2.731   1.964
45510W        W98406  12.731  27.540   8.832
45511W        W98407  28.228  28.029   0.082
45512W        W98408   2.505  24.107   8.716
45513W        W98409  15.911  18.583   2.905
45514W        W98410  14.329   0.255   8.398
45515W        W98411  21.292   5.681   0.271
45516W        W98412   5.414   1.513   0.460
45517W        W98413  23.278  19.927   8.572
45518W        W98414   8.436  29.208   9.351
45519W        W98415   9.979  32.654  10.179
45520W        W98416  10.834  31.187   2.497
45521W        W98417   4.260   3.621   2.802
45522W        W98418  23.235  11.694   1.027
45523W        W98419  25.161  12.999   8.691
45524W        W98420  27.575  24.427   1.926
45525W        W98421  21.192   1.058   2.889
45526W        W98422   5.331  26.380   8.329
45527W        W98423   7.959  29.544   2.585
45528W        W98424  11.093  32.011   1.154
45529W        W98425  24.450  35.542   8.370
45530W        W98426   3.172   8.474   2.476
45531W        W98427  21.144   7.057   9.616
45532W        W98428  31.009  32.821   0.550
45533W        W98429  29.210  15.820   1.180
45534W        W98430  17.844  14.595   0.450
45535W        W98431   8.289   0.034   1.397
45536W        W98432  27.222  20.953   9.820
45537W        W98433  13.493   8.070   9.535
45538W        W98434  11.893   9.196   7.232
45539W        W98435   7.608  27.841   9.513
45540W        W98436  17.452  19.077   2.228
45541W        W98437  20.263  30.329   9.108
45542W        W98438  35.929  19.042   9.061
45543W        W98439  18.245  16.300   0.988
45544W        W98440   4.294  34.286   3.485
45545W        W98441  29.938   6.254   1.500
45546W        W98442   3.580  21.274   3.042
45547W        W98443  29.672  20.045   7.122
45548W        W98444  10.288   6.632   1.085
45549W        W98445  17.055  35.178   1.911
45550W        W98446  29.271  33.079   7.842
45551W        W98447  30.944   7.784   6.734
45552W        W98448  26.028   1.841   9.517
45553W        W98449  20.474  32.786   2.489
45554W        W98450  17.405   8.152   2.482
45555W        W98451  21.961  27.751  10.029
45556W        W98452  32.184  10.349   6.927
45557W        W98453   4.681  33.841   7.269
45558W        W98454   6.980  17.388   0.775
45559W        W98455  26.291  18.812   1.070
45560W        W98456  35.184  18.482   9.886
45561W        W98457   8.973  16.208   9.160
45562W        W98458  24.335   9.205   8.498
45563W        W98459  24.675   0.889   1.016
45564W        W98460   5.574   3.812   1.779
45565W        W98461   8.392   2.981   1.195
45566W        W98462  33.783  15.909   9.988
45567W        W98463   3.209   2.135  10.154
45568W        W98464  26.734  28.981  10.272
45569W        W98465  16.950  21.417   2.336
45570W        W98466   7.821   8.173   2.284
45571W        W98467  30.481   2.109   2.451
45572W        W98468  17.444  17.497   9.506
45573W        W98469   7.485   7.382   9.709
45574W        W98470   9.600  11.016   1.561
45575W        W98471  17.873   5.678   0.473
45576W        W98472   4.460   2.142   1.601
45577W        W98473  20.915  15.663   8.717
45578W        W98474  29.302  13.843   8.956
45579W        W98475  19.748  34.394  10.065
45580W        W98476  17.204   6.221   2.166
45581W        W98477   9.907  21.795   7.244
45582W        W98478   5.259  21.208  10.259
45583W        W98479  33.568  24.199   0.549
45584W        W98480   1.247  14.784   8.668
45585W        W98481  33.437   4.526   8.342
45586W        W98482   7.445   1.393   8.770
45587W        W98483  23.503  16.207   9.111
45588W        W98484  18.700  23.232   7.911
45589W        W98485  12.790  22.824   9.297
45590W        W98486   1.352  29.447   7.003
45591W        W98487  20.584  24.442   8.110
45592W        W98488  14.493  18.383   2.520
45593W        W98489  31.015  29.155   1.998
45594W        W98490   6.208  32.130   1.351
45595W        W98491  28.373  29.761  10.302
45596W        W98492  10.725  35.493   0.504
45597W        W98493  16.511   3.271   1.949
45598W        W98494   6.486  17.639   3.554
45599W        W98495  28.044   9.473   0.594
45600W        W98496  34.721  15.969   3.626
45601W        W98497  26.884  20.734  10.259
45602W        W98498  27.683   6.754   1.335
45603W        W98499  22.888  12.372  10.057
45604W        W98500   2.609  10.804   2.525
45605W        W98501  25.877  20.455   8.388
45606W        W98502  29.354  12.120   2.286
45607W        W98503  35.263  35.724   9.835
45608W        W98504  31.268  19.227   8.020
45609W        W98505  25.191  11.181   3.019
45610W        W98506  28.438  35.663   2.026
45611W        W98507  30.034  15.599   7.931
45612W        W98508  12.167  10.106   8.477
45613W        W98509   4.704  14.326   9.742
45614W        W98510  32.513  13.811   8.919
45615W        W98511  13.902  34.834   2.417
45616W        W98512   0.530  13.563   9.598
45617W        W98513   0.132  33.965   9.787
45618W        W98514  32.862  25.406   0.410
45619W        W98515  25.686   7.699   1.817
45620W        W98516  10.148  28.710   0.740
45621W        W98517   5.806  30.139   8.136
45622W        W98518   6.227  33.978   7.904
45623W        W98519  16.600  11.075   8.911
45624W        W98520  16.497  27.382   9.007
45625W        W98521   3.052   4.665   0.497
45626W        W98522  17.447  34.084   2.613
45627W        W98523  32.356   5.234   9.555
45628W        W98524  21.588  18.026   0.101
45629W        W98525  32.812   1.024  10.187
45630W        W98526   6.755  19.164   1.220
45631W        W98527  17.005  23.993   8.889
45632W        W98528  13.716  15.954   1.492
45633W        W98529   5.914   3.247   1.946
45634W        W98530   3.073   3.731   2.793
45635W        W98531   0.473  10.281   2.898
45636W        W98532  32.588  31.601   0.437
45637W        W98533  27.345  30.357   9.588
45638W        W98534  34.241  11.583  10.248
45639W        W98535  12.044  30.563   2.888
45640W        W98536  20.501  31.576   0.366
45641W        W98537  14.670  17.329   1.323
45642W        W98538  23.486  25.921   8.385
45643W        W98539  24.993  35.886   1.395
45644W        W98540  17.720  20.011   8.982
45645W        W98541  19.295  12.506   9.600
45646W        W98542  21.370  19.605   3.206
45647W        W98543   7.214  15.298   8.255
45648W        W98544  17.786  18.219   8.973
45649W        W98545  35.542   6.218   0.023
45650W        W98546  22.977  15.333   9.861
45651W        W98547  24.803  32.587   3.050
45652W        W98548   2.462   5.795   0.961
45653W        W98549   7.329  24.403   9.585
45654W        W98550  10.192  20.010   0.447
45655W        W98551   6.540   8.105   9.134
45656W        W98552  12.833  28.661   1.102
45657W        W98553   5.696  24.429   7.615
45658W        W98554  12.395   4.325   3.142
45659W        W98555  26.398  25.484   2.637
45660W        W98556  21.415  25.038   8.896
45661W        W98557   3.850  28.867  10.207
45662W        W98558  26.731   3.317   9.653
45663W        W98559   9.525  28.347   2.699
45664W        W98560   3.768   3.374   9.847
45665W        W98561  35.835  18.260   1.973
45666W        W98562  14.674  32.876   8.394
45667W        W98563  19.373   5.402   0.015
45668W        W98564   9.463  21.681   9.147
45669W        W98565  33.969  15.501   9.259
45670W        W98566  35.218  34.936   7.775
45671W        W98567  18.296   7.614   0.587
45672W        W98568  21.624  11.880   2.725
45673W        W98569   7.434  16.292   8.215
45674W        W98570  31.767  31.525  10.286
45675W        W98571  11.801  12.088   1.519
45676W        W98572  22.231   4.762   2.989
45677W        W98573  17.881   3.582   9.795
45678W        W98574  28.645  17.415   8.518
45679W        W98575  19.086  19.376   9.577
45680W        W98576  19.545   9.876   3.814
45681W        W98577  31.079  18.795   0.244
45682W        W98578  35.438  18.400   8.011
45683W        W98579   6.787  12.010   1.762
45684W        W98580   4.423  17.629   3.761
45685W        W98581  34.995  17.718   0.537
45686W        W98582   8.869   0.175   2.620
45687W        W98583   6.462  24.201   9.432
45688W        W98584  30.841   0.946   1.265
45689W        W98585   3.612   2.653   0.942
45690W        W98586  10.033  35.645   7.746
45691W        W98587   4.280   4.892   3.683
45692W        W98588   0.561  32.066   8.223
45693W        W98589   8.896   7.395   8.166
45694W        W98590  32.186  17.696   0.642
45695W        W98591   0.447  15.682   0.365
45696W        W98592  29.250  11.570   1.174
45697W        W98593  29.119  31.006   7.974
45698W        W98594  24.734  13.122   0.319
45699W        W98595  34.746   3.203   2.369
45700W        W98596  11.062  16.599   7.218
45701W        W98597   0.420  34.546   0.462
45702W        W98598  35.603  21.675   1.634
45703W        W98599  14.427  34.451   2.141
45704W        W98600  11.458  15.635   9.086
45705W        W98601  28.067  31.349   8.833
45706W        W98602  35.208  14.964   9.762
45707W        W98603   5.941  11.190   1.632
45708W        W98604  12.021  34.252   8.097
45709W        W98605   1.995  32.448   3.154
45710W        W98606  35.210  30.106   8.227
45711W        W98607   8.226  33.179   9.095
45712W        W98608  24.531   3.749   2.028
45713W        W98609  31.435  34.626   3.283
45714W        W98610  27.288   8.311   8.376
45715W        W98611   3.567  15.712   0.210
45716W        W98612  27.718  24.646   1.189
45717W        W98613  30.353  12.283   1.018
45718W        W98614  10.088   9.864   2.978
45719W        W98615   1.274  30.039   0.566
45720W        W98616   6.439  26.645   0.495
45721W        W98617  23.075  16.996   8.927
45722W        W98618  17.903  13.899   1.214
45723W        W98619  22.152  21.120   8.558
45724W        W98620  11.579   2.697   0.057
45725W        W98621  14.709  25.024  10.242
45726W        W98622  17.507  27.501   9.456
45727W        W98623   1.040   0.926   2.070
45728W        W98624  16.794  11.940   2.028
45729W        W98625   6.139  16.015   2.689
45730W        W98626   4.367   1.742   9.730
45731W        W98627  28.259  10.681   1.922
45732W        W98628  22.382  26.113   1.008
45733W        W98629   3.442  22.711   8.403
45734W        W98630  35.456  17.385   2.627
45735W        W98631   2.583  26.635   8.571
45736W        W98632   5.291  11.166   1.992
45737W        W98633   5.731   3.123   3.029
45738W        W98634  34.640  34.188   0.808
45739W        W98635  17.723  27.317   3.076
45740W        W98636   0.903  30.684  10.270
45741W        W98637  23.306  10.928   1.405
45742W        W98638  23.493  32.338   1.907
45743W        W98639  28.996  25.127   8.716
45744W        W98640  19.952  11.432   8.930
45745W        W98641   1.610  32.689   8.747
45746W        W98642  32.441  32.826   3.354
45747W        W98643  10.739  34.592   8.654
45748W        W98644  15.521  12.244   8.624
45749W        W98645  11.087   9.608   0.939
45750W        W98646  11.113   9.640   9.375
45751W        W98647  24.667  34.076   3.138
45752W        W98648  25.841  27.251   8.623
45753W        W98649  32.163  11.291   8.610
45754W        W98650  35.695  33.101   8.935
45755W        W98651   8.147   0.514   6.944
45756W        W98652  24.554  22.659   2.126
45757W        W98653  31.717  32.853   8.947
45758W        W98654   0.356   0.447   8.512
45759W        W98655   1.122  10.755   8.070
45760W        W98656  28.411  22.827   3.203
45761W        W98657   2.571  13.544   8.538
45762W        W98658  17.264  13.635   1.548
45763W        W98659  19.047   4.677   0.822
45764W        W98660  20.348  15.551  10.333
45765W        W98661   9.418  22.682   2.395
45766W        W98662  33.376  31.597   7.742
45767W        W98663  20.894   0.654   0.742
45768W        W98664   4.447  29.430   8.041
45769W        W98665  21.649  31.522   9.942
45770W        W98666  12.852  34.229   8.381
45771W        W98667   8.236  21.548   8.046
45772W        W98668   9.768  17.312  10.214
45773W        W98669  15.493  35.288   9.118
45774W        W98670  22.314  17.887   9.997
45775W        W98671  18.218  15.704   7.780
45776W        W98672   0.041  19.843   4.264
45777W        W98673  27.617  19.665   1.568
45778W        W98674  29.722   7.371   1.242
45779W        W98675  25.748  19.669   8.504
45780W        W98676  16.834  20.074   1.375
45781W        W98677  35.634  20.060   9.660
45782W        W98678  32.653  17.695   8.636
45783W        W98679  26.514  18.835   7.226
45784W        W98680  25.676   3.575   8.249
45785W        W98681  20.469   0.785   9.047
45786W        W98682   3.430  14.568   0.763
45787W        W98683   4.408  24.967   7.870
45788W        W98684  17.582  35.509   8.718
45789W        W98685  20.793  17.008   0.962
45790W        W98686  30.385  21.943   7.352
45791W        W98687  16.019  34.344   0.196
45792W        W98688   9.533  10.897   0.285
45793W        W98689   2.552  35.073   9.359
45794W        W98690  32.708  30.840   2.953
45795W        W98691   8.941  22.210   0.799
45796W        W98692   5.819  21.619   3.203
45797W        W98693  10.784  15.797   1.737
45798W        W98694  26.683  24.278   2.195
45799W        W98695   9.798  18.176   2.224
45800W        W98696  14.038   8.634   8.887
45801W        W98697  32.973   0.020   9.684
45802W        W98698  19.617   4.186   1.394
45803W        W98699  19.555  27.905   3.213
45804W        W98700  17.215  27.794   8.551
45805W        W98701  13.146  10.178   2.770
45806W        W98702   0.149   6.279   3.034
45807W        W98703  25.386  33.373   0.503
45808W        W98704   0.319  18.734   2.499
45809W        W98705  32.091  34.265   8.550
45810W        W98706  28.716   5.849   0.360
45811W        W98707  32.894  20.447   1.659
45812W        W98708  17.115  34.344   7.773
45813W        W98709  11.946  26.968   2.609
45814W        W98710   9.273  29.791   1.836
45815W        W98711   4.604  24.845   1.900
45816W        W98712   3.199  21.845   8.828
45817W        W98713  22.931  29.282   7.750
45818W        W98714   7.620   2.574   0.370
45819W        W98715  23.455  31.894   0.887
45820W        W98716  16.795   3.800   9.733
45821W        W98717  24.116  15.236   2.862
45822W        W98718   6.549  12.487   8.927
45823W        W98719  28.914   1.717   9.126
45824W        W98720  11.022  33.293   8.318
45825W        W98721  15.266   5.747   7.732
45826W        W98722  18.303  12.744   7.751
45827W        W98723   6.756  12.289   8.042
45828W        W98724  29.777  33.602   9.072
45829W        W98725   6.013   9.144   2.377
45830W        W98726  31.836  15.772   0.905
45831W        W98727  23.819  26.167   3.291
45832W        W98728   0.629  20.033   9.607
45833W        W98729  22.506  21.392  10.211
45834W        W98730  14.891  13.285   2.737
45835W        W98731  16.870  24.868   1.125
45836W        W98732  15.475  18.764   3.081
45837W        W98733  26.765  28.098   3.667
45838W        W98734   3.997   6.640   3.928
45839W        W98735  34.490   2.956   1.027
45840W        W98736  26.360   5.587   1.572
45841W        W98737  10.890  22.260   0.715
45842W        W98738  12.601  12.100   8.164
45843W        W98739  34.417   4.642   8.605
45844W        W98740  18.093  15.780   8.744
45845W        W98741  20.290  15.789   3.342
45846W        W98742  32.731  20.846   7.360
45847W        W98743  19.940  20.255   1.151
45848W        W98744  14.018  15.685   9.347
45849W        W98745  16.879  26.437   8.493
45850W        W98746   5.504   5.931   0.037
45851W        W98747   9.209  11.505   7.392
45852W        W98748  29.317  27.838   2.124
45853W        W98749  16.239  15.480   1.026
45854W        W98750   6.770  11.998   0.917
45855W        W98751   0.610  30.903   1.011
45856W        W98752  13.053  33.308   8.509
45857W        W98753  26.140   6.133   0.397
45858W        W98754  31.547   6.708   2.685
45859W        W98755  31.464  31.118  10.164
45860W        W98756  22.046  26.778   1.516
45861W        W98757  12.554   3.038   1.084
45862W        W98758  17.855  29.454   1.636
45863W        W98759  13.242  25.904   8.377
45864W        W98760   0.941  27.144  10.268
45865W        W98761  27.913  14.648   1.078
45866W        W98762  18.690   1.777   7.354
45867W        W98763  14.260  16.521   1.870
45868W        W98764  23.315  21.263   8.365
45869W        W98765  13.925  32.819   0.274
45870W        W98766  22.017  10.061   9.279
45871W        W98767  25.721   7.706   0.585
45872W        W98768  22.404   7.792   7.490
45873W        W98769   0.924  18.849  10.250
45874W        W98770  31.157  34.664   7.166
45875W        W98771  18.806  19.483   2.324
45876W        W98772   8.483  29.304   0.506
45877W        W98773  23.292  27.752   2.328
45878W        W98774  18.575  14.536   2.135
45879W        W98775   4.233   1.716   7.761
45880W        W98776  19.173   0.704   2.403
45881W        W98777  25.142  22.570   2.624
45882W        W98778   7.673  17.193   0.807
45883W        W98779  29.375   0.446   2.976
45884W        W98780  20.179  22.262   8.229
45885W        W98781  10.858   4.854   0.446
45886W        W98782  26.599  14.219   0.943
45887W        W98783  29.715   1.150   8.681
45888W        W98784  22.908   3.687   9.473
45889W        W98785  32.479   1.741   0.636
45890W        W98786   5.997  15.793   9.009
45891W        W98787  17.097   1.101   1.090
45892W        W98788   1.040  30.717   2.490
45893W        W98789  26.172  18.672   1.963
45894W        W98790  24.807   8.929   7.122
45895W        W98791  30.830  21.673   7.803
45896W        W98792   1.314   5.155   2.401
45897W        W98793  17.858  27.776   7.696
45898W        W98794  13.088   2.655   9.134
45899W        W98795  30.580   1.759   0.096
45900W        W98796  31.254  14.571   8.124
45901W        W98797  30.772  26.163   8.486
45902W        W98798  20.571  14.969   3.478
45903W        W98799  32.821  10.049   8.145
45904W        W98800  25.969  24.752   9.117
45905W        W98801  11.440  35.621   9.423
45906W        W98802  27.110   5.392   0.223
45907W        W98803  15.768  16.951   1.469
45908W        W98804  31.550  21.368   8.921
45909W        W98805  25.744  25.542   1.378
45910W        W98806  28.556  23.729   2.537
45911W        W98807  12.382  12.946   1.053
45912W        W98808  28.093  26.163   0.545
45913W        W98809  17.717   4.852   7.678
45914W        W98810  35.113   1.170   3.066
45915W        W98811   3.004  34.515   2.450
45916W        W98812  30.426   1.228   2.279
45917W        W98813   7.196   8.712  10.252
45918W        W98814  29.608   4.076   8.736
45919W        W98815  17.046   2.642   8.812
45920W        W98816  13.674  17.043   2.554
45921W        W98817  24.456  35.534   2.761
45922W        W98818   7.909  14.338   9.148
45923W        W98819  17.464  21.484   2.975
45924W        W98820  19.865   3.102   9.649
45925W        W98821  13.714  33.737   8.109
45926W        W98822  18.141  25.507   2.424
45927W        W98823  26.753   8.825  10.279
45928W        W98824  14.101  23.643   2.624
45929W        W98825   8.182  32.782   0.648
45930W        W98826  35.316  16.588   1.927
45931W        W98827   2.103   4.691   1.243
45932W        W98828  21.347   6.715   7.742
45933W        W98829  21.927   1.605   8.536
45934W        W98830  25.741  21.459   1.221
45935W        W98831  27.515   3.128  10.285
45936W        W98832   2.666   6.075   7.240
45937W        W98833  27.530  20.332   2.275
45938W        W98834   2.430  22.668   1.653
45939W        W98835  24.964   1.839   1.319
45940W        W98836  32.148  15.476   1.269
45941W        W98837  21.178  32.476   9.815
45942W        W98838  10.613  32.317   7.939
45943W        W98839   8.853  34.084   9.530
45944W        W98840  35.728  19.619   3.235
45945W        W98841   1.727   4.367   2.410
45946W        W98842   5.247  24.567  10.331
45947W        W98843  27.636   8.546   1.645
45948W        W98844  30.761  27.568   8.652
45949W        W98845  22.588  13.974   3.784
45950W        W98846  35.853   6.948   8.546
45951W        W98847   1.641   4.740   9.319
45952W        W98848   2.329   7.144  10.174
45953W        W98849   1.803  22.767   2.964
45954W        W98850  27.515  17.446   2.368
45955W        W98851  13.389  14.720   7.269
45956W        W98852   9.122  10.613   0.209
45957W        W98853  19.682   6.091   1.884
45958W        W98854  22.897  15.310   8.221
45959W        W98855   0.985  35.530   1.136
45960W        W98856  33.230   9.046   7.302
45961W        W98857   7.909  12.613   8.012
45962W        W98858   7.636  27.368   8.822
45963W        W98859   1.363   8.943   3.126
45964W        W98860  12.219   8.931   0.853
45965W        W98861  10.234   2.521   7.279
45966W        W98862   7.582  22.020   0.902
45967W        W98863  18.143  35.136   8.182
45968W        W98864  19.783  26.756   7.355
45969W        W98865   8.743  28.411   7.889
45970W        W98866  34.850   8.529   8.102
45971W        W98867  20.054  29.266   7.390
45972W        W98868   6.958  26.314   9.186
45973W        W98869  22.274  33.669   3.053
45974W        W98870  34.143  16.375   8.718
45975W        W98871  14.522  10.738   3.169
45976W        W98872  10.065  18.302   8.594
45977W        W98873  11.535   0.559   3.520
45978W        W98874  26.314  32.730   0.491
45979W        W98875  26.673  31.737   2.145
45980W        W98876  34.430  28.818   0.711
45981W        W98877  16.421   8.819   9.843
45982W        W98878  12.485  14.752   8.564
45983W        W98879   7.088  28.378   7.248
45984W        W98880  19.160  30.390   0.912
45985W        W98881   0.094  16.371   8.775
45986W        W98882  13.709   5.361   1.678
45987W        W98883  32.627  22.259   1.203
45988W        W98884   4.600  34.759   9.240
45989W        W98885   5.796  18.465   1.125
45990W        W98886  23.808  24.455   1.572
45991W        W98887  18.601  12.521   0.871
45992W        W98888  24.877  30.048   8.990
45993W        W98889  20.782  15.445   2.656
45994W        W98890  11.227  16.611  10.193
45995W        W98891  32.941  33.697   7.306
45996W        W98892  13.950  30.613   0.377
45997W        W98893  16.981  12.905   1.589
45998W        W98894  29.085  15.960   3.562
45999W        W98895  22.362  25.725   9.198
46000W        W98896  21.872  10.624   8.520
46001W        W98897  19.734  32.564   3.319
46002W        W98898   2.476   6.439   2.092
46003W        W98899   9.189  10.922   7.455
46004W        W98900  18.914   7.499   8.842
46005W        W98901  16.266  17.090   2.065
46006W        W98902  23.807   7.939   1.753
46007W        W98903  17.100  29.916   8.567
46008W        W98904   3.848  13.445   9.457
46009W        W98905  17.201  10.738   1.640
46010W        W98906  27.923   7.746   2.148
46011W        W98907  32.105  32.186   2.696
46012W        W98908   1.513   0.873   9.877
46013W        W98909  19.777  24.131   1.795
46014W        W98910   9.434  11.814   2.584
46015W        W98911   3.530  33.791   2.255
46016W        W98912  25.716  32.581   1.896
46017W        W98913  26.935   2.092   9.609
46018W        W98914  29.104  18.366   2.603
46019W        W98915   4.995   1.553   9.114
46020W        W98916   4.497   4.760   9.232
46021W        W98917  30.885  30.028   1.297
46022W        W98918  10.827   7.142   9.294
46023W        W98919  32.939   8.111   9.499
46024W        W98920   1.978  14.828   0.692
46025W        W98921  24.270  23.207   9.907
46026W        W98922   7.228  20.649   8.900
46027W        W98923   3.246  15.391   0.278
46028W        W98924  19.788  20.139   9.023
46029W        W98925   7.493  30.836   3.201
46030W        W98926  22.613   3.146   1.396
46031W        W98927   0.345   6.275   1.035
46032W        W98928  33.603  31.173   2.765
46033W        W98929  15.072  11.147   2.351
46034W        W98930   7.708  25.786   9.608
46035W        W98931  18.545  25.325   0.544
46036W        W98932  12.692  15.046   7.282
46037W        W98933  15.791  29.510   0.592
46038W        W98934  23.383  35.953   7.092
46039W        W98935  17.382  21.555   1.063
46040W        W98936  19.607  11.470   2.102
46041W        W98937  27.203  31.344   7.495
46042W        W98938  16.975  12.077   7.955
46043W        W98939  26.297   7.641   3.203
46044W        W98940  34.130  21.572   0.287
46045W        W98941   9.997  25.708   0.529
46046W        W98942  10.400  24.956   9.458
46047W        W98943  16.394   7.490   1.410
46048W        W98944  14.034  14.911   2.088
46049W        W98945  26.884   2.987   3.157
46050W        W98946  11.713  12.470   2.200
46051W        W98947  10.279  30.782  10.103
46052W        W98948  19.544  20.112   0.777
46053W        W98949   7.249   2.362   2.468
46054W        W98950  10.152  22.119   1.691
46055W        W98951   0.867   8.445   2.021
46056W        W98952   1.184  24.575   1.294
46057W        W98953  11.490  16.338   9.030
46058W        W98954  20.899   2.116   0.288
46059W        W98955  27.495  26.971  10.248
46060W        W98956  22.337  29.756   8.129
46061W        W98957  17.890  35.127   0.724
46062W        W98958  26.154  17.648   1.315
46063W        W98959   5.495  23.940  10.109
46064W        W98960  20.597  33.786   2.125
46065W        W98961   0.264   2.416   9.242
46066W        W98962  35.070  33.764  10.168
46067W        W98963  30.782   5.024   0.393
46068W        W98964  33.460   9.359   1.965
46069W        W98965  15.063   0.668   0.284
46070W        W98966  15.965  19.263   2.308
46071W        W98967  21.136  28.543   3.227
46072W        W98968  25.406  10.780   3.172
46073W        W98969  31.845   5.288   1.422
46074W        W98970  34.167   5.630   0.248
46075W        W98971  22.729  31.408   7.858
46076W        W98972   6.065  17.035   2.539
46077W        W98973  15.815  34.999   2.148
46078W        W98974  26.928   2.293   3.815
46079W        W98975  20.999   3.060   9.520
46080W        W98976  29.733   5.262   9.550
46081W        W98977  33.968  35.237   7.749
46082W        W98978  16.214   5.530   1.576
46083W        W98979  12.575  28.740   2.819
46084W        W98980  31.389  11.612   8.556
46085W        W98981  27.432  33.202   1.617
46086W        W98982  20.450   9.657   3.134
46087W        W98983   0.841   7.313   0.614
46088W        W98984  24.837   2.530   2.484
46089W        W98985  33.626  15.330  10.294
46090W        W98986  17.889  24.737   1.205
46091W        W98987  26.440   6.094   3.159
46092W        W98988  26.823   9.409   7.681
46093W        W98989  25.718   5.924   0.223
46094W        W98990  17.066  10.977   1.081
46095W        W98991   3.612  14.251   3.255
46096W        W98992  17.286   3.124   9.390
46097W        W98993  24.690  31.048   1.676
46098W        W98994   9.914  35.580   9.619
46099W        W98995  31.513   8.935   0.542
46100W        W98996  28.735   6.220  10.335
46101W        W98997  18.346  29.495   0.113
46102W        W98998   2.530  17.042   0.332
46103W        W98999   0.817   0.649   8.253
46104W        W99000  25.923  21.996   1.011
46105W        W99001  11.076  23.257   8.180
46106W        W99002   2.936   7.682   2.598
46107W        W99003  32.224   6.949   8.356
46108W        W99004  21.175  11.026   8.394
46109W        W99005  23.359   7.355   1.582
46110W        W99006  26.050   7.614   0.132
46111W        W99007   2.168  12.664   8.276
46112W        W99008  28.776   9.874   1.989
46113W        W99009   4.475  10.800   0.838
46114W        W99010  13.854  16.635   1.007
46115W        W99011  18.185  29.976   9.748
46116W        W99012  18.297   1.419   3.017
46117W        W99013   8.277  34.913   9.712
46118W        W99014  20.261  28.062   1.616
46119W        W99015  31.580   9.658   0.035
46120W        W99016   3.285  22.972   8.731
46121W        W99017  33.564  15.435   2.386
46122W        W99018   7.737  16.200   9.311
46123W        W99019  12.890  33.368   4.144
46124W        W99020  20.160  28.849   0.516
46125W        W99021  30.901  12.336   8.667
46126W        W99022  15.499  24.819   0.867
46127W        W99023  34.404  14.985   8.660
46128W        W99024  12.810   4.862   2.781
46129W        W99025  25.091   0.095   9.730
46130W        W99026   8.656  28.149   3.187
46131W        W99027  21.652   1.282   8.150
46132W        W99028  12.691  28.916   7.505
46133W        W99029  34.204  19.363   1.589
46134W        W99030  29.268  34.742   7.167
46135W        W99031   5.135  21.559   9.542
46136W        W99032  12.671  18.681   3.249
46137W        W99033   1.910   7.660   1.406
46138W        W99034  35.222  10.750   1.046
46139W        W99035  13.663  27.103   1.242
46140W        W99036  24.074  33.167   1.262
46141W        W99037   1.602  26.921   0.569
46142W        W99038  11.628  24.740   0.082
46143W        W99039   2.502  14.038   8.667
46144W        W99040  24.486  12.207   1.200
46145W        W99041  20.586  18.994   3.097
46146W        W99042  10.857  25.459   7.733
46147W        W99043   6.413  34.868   7.705
46148W        W99044   1.193   8.558   0.531
46149W        W99045  25.914  21.379   8.828
46150W        W99046  32.187  11.656   1.977
46151W        W99047  21.219  15.703   2.761
46152W        W99048  11.703  22.490   9.499
46153W        W99049  23.520  35.794   2.303
46154W        W99050  11.435  23.442   1.545
46155W        W99051  12.679  33.228   2.724
46156W        W99052  15.966  27.486   2.965
46157W        W99053  32.662  31.652   9.330
46158W        W99054  30.510   3.863   9.301
46159W        W99055   5.898  12.424   0.807
46160W        W99056  16.074  25.432   2.290
46161W        W99057  20.175  31.644   8.986
46162W        W99058  28.109   6.479   8.470
46163W        W99059   4.263  29.978   3.026
46164W        W99060  31.459   1.488   1.458
46165W        W99061   3.158   8.622   8.286
46166W        W99062  17.088  31.228   2.340
46167W        W99063  32.089  34.010   0.105
46168W        W99064   5.105  26.315   0.218
46169W        W99065   1.569  15.080   4.629
46170W        W99066   6.154  18.206   8.452
46171W        W99067  31.889  16.134   9.741
46172W        W99068  27.809   7.956   3.283
46173W        W99069  12.621  19.428   0.569
46174W        W99070  25.332  29.625   7.412
46175W        W99071  33.684   2.480   3.445
46176W        W99072   7.820   5.270   7.829
46177W        W99073   3.599  14.912   3.667
46178W        W99074  22.361  33.744   1.563
46179W        W99075  13.761   1.335   7.674
46180W        W99076  10.240  12.451   7.895
46181W        W99077  15.793  29.366   1.842
46182W        W99078   2.765  29.129   1.503
46183W        W99079   7.519  28.935   9.196
46184W        W99080  34.839  23.959   0.798
46185W        W99081  10.597   9.549   8.771
46186W        W99082  30.512   1.782   9.467
46187W        W99083  15.531   9.817   8.639
46188W        W99084  23.334  17.915   0.333
46189W        W99085  31.107  15.792   0.465
46190W        W99086  26.051  18.539   2.734
46191W        W99087   0.868  12.183   8.450
46192W        W99088  16.592  28.324  10.127
46193W        W99089   5.688  20.431   7.878
46194W        W99090  13.399   5.551   0.274
46195W        W99091  23.305  26.816   6.932
46196W        W99092  21.114  17.811   3.186
46197W        W99093  21.521  32.046  10.075
46198W        W99094   9.406   2.063   1.837
46199W        W99095  20.804  35.115   0.884
46200W        W99096   5.736  14.846   2.068
46201W        W99097  10.364  20.678   2.082
46202W        W99098  21.014  19.756   2.044
46203W        W99099   3.333  34.209   8.989
46204W        W99100  19.078  33.868   2.366
46205W        W99101   7.142  28.592   1.273
46206W        W99102  14.445  29.611   1.733
46207W        W99103  33.174  24.366   2.483
46208W        W99104  15.941   0.715   2.246
46209W        W99105  16.381  34.778   1.345
46210W        W99106  21.519   6.373   8.091
46211W        W99107   8.224   0.170   9.065
46212W        W99108  10.077   2.132   0.693
46213W        W99109  28.821  21.369   1.581
46214W        W99110  33.406   1.189   8.958
46215W        W99111  21.756  23.291   8.183
46216W        W99112  17.747  11.015   1.560
46217W        W99113  12.630  28.350   0.223
46218W        W99114  26.790  22.862   8.630
46219W        W99115  14.978  28.480   0.756
46220W        W99116   7.231  23.250   3.497
46221W        W99117  16.373   7.965   7.435
46222W        W99118  27.987  25.689   1.517
46223W        W99119  14.654   8.120   3.873
46224W        W99120  12.131  19.050   9.070
46225W        W99121  13.190  22.994   7.857
46226W        W99122  27.325  33.722   0.524
46227W        W99123  29.385  20.315   8.747
46228W        W99124  17.712   1.154   1.605
46229W        W99125  11.369  19.398   7.308
46230W        W99126  30.641  24.502   9.043
46231W        W99127  35.352  22.557   1.395
46232W        W99128  24.626  35.639   1.093
46233W        W99129  29.830  33.739   2.360
46234W        W99130   2.082  21.746   8.925
46235W        W99131  33.648  18.835   8.266
46236W        W99132  11.791  31.538   3.478
46237W        W99133  11.427  12.826   8.327
46238W        W99134  10.157  22.986   1.209
46239W        W99135  13.664  12.964   7.694
46240W        W99136   7.269  11.313   1.371
46241W        W99137  27.818  33.538   0.745
46242W        W99138  12.665  18.306   1.311
46243W        W99139  28.372  12.878   2.325
46244W        W99140  16.860  19.657   1.810
46245W        W99141  22.958  20.916   8.022
46246W        W99142  24.797  20.575   0.116
46247W        W99143   1.150   6.436   2.397
46248W        W99144  28.909  34.397   0.110
46249W        W99145  21.825  13.038   9.818
46250W        W99146  31.239  21.491   0.593
46251W        W99147  24.723  17.807   9.769
46252W        W99148  24.609  19.864   8.936
46253W        W99149  26.938   5.448   1.359
46254W        W99150  20.245  28.118   1.134
46255W        W99151   0.729  33.707   3.535
46256W        W99152  31.398  28.207   7.545
46257W        W99153  19.933   6.833   9.736
46258W        W99154  25.398   8.613   2.447
46259W        W99155  35.544  34.052   8.497
46260W        W99156   4.741   2.120   2.849
46261W        W99157  22.126  33.243   2.908
46262W        W99158  14.636  15.768   8.045
46263W        W99159  22.935  13.989   3.432
46264W        W99160   6.113  16.322   0.841
46265W        W99161   7.313  17.346   0.360
46266W        W99162  23.958  17.911   9.345
46267W        W99163  25.222  33.783   0.999
46268W        W99164  32.280  32.108   1.252
46269W        W99165  22.585  13.600   8.715
46270W        W99166  19.113   0.928   9.212
46271W        W99167  23.930  21.537   7.835
46272W        W99168   7.313  21.495   1.238
46273W        W99169  21.640  10.830   2.649
46274W        W99170   3.400  33.286   8.604
46275W        W99171  34.637   7.686   9.899
46276W        W99172   6.232   7.007   8.760
46277W        W99173   4.274   9.079   9.243
46278W        W99174  32.042   3.016   1.729
46279W        W99175  23.308  35.154   1.469
46280W        W99176  16.698   3.332   1.499
46281W        W99177  21.995   4.545   0.559
46282W        W99178   5.332   1.240   9.349
46283W        W99179  30.614   0.026   7.781
46284W        W99180  18.378   3.478   2.280
46285W        W99181  28.545  16.012   0.345
46286W        W99182  17.929   0.326   9.342
46287W        W99183  14.929   8.335   9.170
46288W        W99184  34.549   5.716   2.010
46289W        W99185  19.011  32.552   0.643
46290W        W99186   4.701   9.014   3.749
46291W        W99187  31.581  29.042   0.309
46292W        W99188  22.119  12.929   8.473
46293W        W99189  15.517  15.426   7.708
46294W        W99190  29.302  33.192   1.215
46295W        W99191   1.961   1.199   9.070
46296W        W99192  15.229  18.866   2.643
46297W        W99193  13.399  30.694   8.251
46298W        W99194  14.053  29.641   2.177
46299W        W99195  27.465  29.910   0.417
46300W        W99196  22.380   9.053   9.641
46301W        W99197  26.404  33.755   7.873
46302W        W99198  34.669  16.833   8.010
46303W        W99199  28.920  18.991   1.198
46304W        W99200   6.747  27.940   9.115
46305W        W99201  35.213  21.027   1.379
46306W        W99202   1.805   0.652   8.454
46307W        W99203   8.519  29.702   0.936
46308W        W99204  18.108  29.440   9.956
46309W        W99205  17.780  17.614   8.761
46310W        W99206  17.226  11.741   0.328
46311W        W99207   8.462  31.391   1.799
46312W        W99208  18.041   3.362   1.786
46313W        W99209  33.331   3.570   8.261
46314W        W99210  27.101  33.592   1.463
46315W        W99211  11.258  16.893   9.748
46316W        W99212   8.468  27.418   0.326
46317W        W99213   4.892  24.484   0.452
46318W        W99214  19.449  25.313   0.485
46319W        W99215   9.471  21.320   8.107
46320W        W99216   6.834  11.770   7.173
46321W        W99217   7.182  22.751   9.913
46322W        W99218  31.502  26.056   8.653
46323W        W99219  21.063  22.044   1.977
46324W        W99220   1.793   0.134   0.545
46325W        W99221  21.455   4.118   9.391
46326W        W99222  10.753  26.597   8.552
46327W        W99223   0.308   9.874   2.728
46328W        W99224  30.637  27.989   8.173
46329W        W99225   8.078  27.754   7.683
46330W        W99226  10.935  20.101   7.375
46331W        W99227   7.917   4.992   3.112
46332W        W99228   2.553   0.914   9.619
46333W        W99229   4.347   5.698   1.453
46334W        W99230  13.379  35.149   1.630
46335W        W99231  14.077  12.078   0.723
46336W        W99232  17.988  17.293   2.575
46337W        W99233   8.967  20.759   8.219
46338W        W99234   1.983  24.559   0.154
46339W        W99235   4.201   5.387   9.815
46340W        W99236  27.143  35.253   3.290
46341W        W99237  31.255  14.214   8.844
46342W        W99238  21.309  31.829   0.600
46343W        W99239   6.470  29.078   0.984
46344W        W99240  23.353   0.138   1.384
46345W        W99241  25.634  17.872   8.462
46346W        W99242  29.946   5.730   9.357
46347W        W99243  35.332   2.268   8.064
46348W        W99244  12.729  11.795   1.641
46349W        W99245  30.034  18.762   7.903
46350W        W99246  13.401  10.631   2.889
46351W        W99247   5.905   4.451   8.047
46352W        W99248   1.363  20.656   2.002
46353W        W99249  33.276  28.905   3.234
46354W        W99250  35.004  33.526   9.667
46355W        W99251  27.261  34.644   0.257
46356W        W99252  28.451   6.644  10.204
46357W        W99253   8.159  32.409   8.167
46358W        W99254  16.242  23.928   1.605
46359W        W99255  32.558  15.743   0.509
46360W        W99256  17.624   0.782   7.686
46361W        W99257  15.186  30.972   7.897
46362W        W99258  19.687  30.372   9.038
46363W        W99259   1.523  10.749   9.568
46364W        W99260  14.690  26.153   7.484
46365W        W99261  15.990  31.380   1.952
46366W        W99262  34.637  25.184   0.579
46367W        W99263   2.930  31.334   8.174
46368W        W99264  20.166   9.666   8.905
46369W        W99265  14.654  22.464   2.498
46370W        W99266  27.107   2.305   0.701
46371W        W99267  28.128  28.763  10.287
46372W        W99268   6.837  16.833   8.992
46373W        W99269  29.936  27.890   0.326
46374W        W99270   0.960  25.654   8.343
46375W        W99271  28.264   2.314   2.728
46376W        W99272  30.364  14.433   3.952
46377W        W99273  14.810  26.326   0.837
46378W        W99274  23.573  30.891   7.868
46379W        W99275   9.106   5.563   2.670
46380W        W99276  21.454   4.534   7.565
46381W        W99277  31.954  11.298  10.145
46382W        W99278   2.389  16.364   0.230
46383W        W99279  34.062   3.475  10.014
46384W        W99280  10.659  26.866   1.004
46385W        W99281   2.334  25.633   3.175
46386W        W99282  21.044   4.014   8.158
46387W        W99283  25.573  16.340   3.101
46388W        W99284  28.102  22.962   8.896
46389W        W99285   0.628  25.038   0.236
46390W        W99286  32.630  20.766   0.958
46391W        W99287  34.379  33.058   0.873
46392W        W99288  29.838  21.556   0.176
46393W        W99289  22.142  13.241   3.380
46394W        W99290  18.144  22.529   7.420
46395W        W99291  34.382   3.281   9.682
46396W        W99292   6.887  16.716   3.107
46397W        W99293   1.993  23.368   2.117
46398W        W99294  31.079  24.173  10.302
46399W        W99295   8.022   0.235   0.634
46400W        W99296   8.671  30.804   3.285
46401W        W99297  19.847  17.585   0.292
46402W        W99298   1.874  24.282  10.112
46403W        W99299  25.106  15.891   1.323
46404W        W99300  16.106  34.462   1.992
46405W        W99301  26.889   8.608   0.707
46406W        W99302   9.595  22.286   7.472
46407W        W99303   7.004   2.185   0.902
46408W        W99304  34.735  34.377   9.006
46409W        W99305  11.218  26.272   9.285
46410W        W99306  11.237  34.929   2.223
46411W        W99307  11.444  13.344   9.183
46412W        W99308  10.996   3.553   8.435
46413W        W99309   9.970  14.991   7.644
46414W        W99310  30.730  24.831   0.551
46415W        W99311  28.389  33.567   1.940
46416W        W99312  25.043  13.361   2.801
46417W        W99313   2.187  27.064   2.580
46418W        W99314   2.399  31.715   2.661
46419W        W99315  18.188   3.053   2.434
46420W        W99316  13.530  23.494   2.872
46421W        W99317  24.123  19.447   8.982
46422W        W99318  35.655   7.209  10.256
46423W        W99319   6.637  10.254   8.170
46424W        W99320  33.058  22.044   2.551
46425W        W99321   9.500  17.144   1.352
46426W        W99322  14.831  16.896  10.333
46427W        W99323  16.900  24.751  10.181
46428W        W99324  31.656  21.673   1.811
46429W        W99325  26.805  28.456   0.843
46430W        W99326  26.353  15.237   0.283
46431W        W99327  18.903  24.266   1.697
46432W        W99328  14.760  31.861   3.345
46433W        W99329  24.744  10.123   2.710
46434W        W99330   1.843  35.435   7.709
46435W        W99331  19.553  33.784   1.419
46436W        W99332   6.856  27.731   9.936
46437W        W99333  26.308  16.464   0.062
46438W        W99334  25.350   8.699   9.566
46439W        W99335  30.411  17.150   7.919
46440W        W99336   6.339   8.755   1.612
46441W        W99337  19.043   0.229   0.210
46442W        W99338   7.534  30.791   0.890
46443W        W99339  11.633  27.768  10.137
46444W        W99340  13.677   5.995   0.918
46445W        W99341  13.104  10.318   3.204
46446W        W99342  31.032  19.687   1.714
46447W        W99343  12.107  22.129   9.365
46448W        W99344  15.854  30.860   0.658
46449W        W99345   2.887  28.851   2.453
46450W        W99346  32.543   0.159   2.451
46451W        W99347  27.239  30.303  10.144
46452W        W99348  33.688  27.450   9.107
46453W        W99349  35.215   5.746   1.363
46454W        W99350   0.349  10.319   3.709
46455W        W99351   1.231  34.498   2.752
46456W        W99352  13.243   2.915   2.958
46457W        W99353  12.161   9.806   2.908
46458W        W99354  27.947  19.730   2.919
46459W        W99355  18.394  31.901   3.013
46460W        W99356  31.869   4.543   7.465
46461W        W99357  10.838   5.586   7.944
46462W        W99358  26.652  30.003   9.281
46463W        W99359  35.118  16.790   2.782
46464W        W99360  19.659  21.330   7.501
46465W        W99361   6.327  19.254   2.290
46466W        W99362  31.058   6.566   3.490
46467W        W99363  10.793   8.653   3.463
46468W        W99364  17.688   4.237   1.248
46469W        W99365   9.619  23.971   7.909
46470W        W99366   2.083  23.108   8.403
46471W        W99367   6.918  11.527   3.059
46472W        W99368  33.515  34.348   9.322
46473W        W99369  22.991  23.644   8.325
46474W        W99370  24.493  33.729   2.263
46475W        W99371  21.176   6.990   3.167
46476W        W99372  35.284  15.604   7.717
46477W        W99373  17.217  29.329   0.213
46478W        W99374   1.002  29.871   9.113
46479W        W99375  18.282  13.724   1.932
46480W        W99376  34.613  31.720   8.479
46481W        W99377  16.855  34.595   9.339
46482W        W99378   9.111   1.078   1.058
46483W        W99379   4.051  30.138   0.540
46484W        W99380  31.528  31.165   2.601
46485W        W99381  22.839   2.353   0.119
46486W        W99382  30.835   8.607   8.062
46487W        W99383  21.002  34.821   8.251
46488W        W99384   1.280   1.301   3.437
46489W        W99385  32.706  10.419   7.766
46490W        W99386  28.989  15.584   9.895
46491W        W99387  25.378  19.366   0.053
46492W        W99388  22.356   6.035   2.088
46493W        W99389   5.345   5.425   3.467
46494W        W99390  20.957   4.447   2.272
46495W        W99391  31.022  28.327   2.480
46496W        W99392  23.759  18.157   0.387
46497W        W99393  33.948   9.348   9.128
46498W        W99394  10.626  28.315   9.290
46499W        W99395   1.215   9.573   2.399
46500W        W99396  10.183  25.981   7.877
46501W        W99397  13.081  32.476   9.697
46502W        W99398  21.404   3.101   1.695
46503W        W99399  29.725  35.845   9.753
46504W        W99400  22.394  20.073   8.048
46505W        W99401  30.699  10.435   3.151
46506W        W99402  17.626  14.351   3.031
46507W        W99403   7.595  23.326   0.521
46508W        W99404  32.739  21.453   2.659
46509W        W99405  30.033  25.420   7.380
46510W        W99406   4.339   0.577   8.827
46511W        W99407  13.773   4.607   0.651
46512W        W99408  33.619  32.540   9.912
46513W        W99409   4.204  22.485  10.099
46514W        W99410  31.234   3.782   0.593
46515W        W99411  14.489  11.209   0.908
46516W        W99412  16.910   9.562   9.231
46517W        W99413  33.732   2.624   0.476
46518W        W99414  22.665  28.822   7.512
46519W        W99415  34.737  10.439   8.677
46520W        W99416   4.144  14.333   1.519
46521W        W99417  13.705  26.979   9.581
46522W        W99418   1.308  10.843   2.964
46523W        W99419  31.597  16.389   2.820
46524W        W99420  24.471  13.669   0.736
46525W        W99421   3.446  17.250   8.732
46526W        W99422   6.896  24.449   8.359
46527W        W99423   3.784  20.559   8.670
46528W        W99424  20.900  29.226   9.973
46529W        W99425  20.113   0.501  10.033
46530W        W99426   9.321  33.493   8.528
46531W        W99427   1.050  16.751   1.769
46532W        W99428  23.863   2.984   8.373
46533W        W99429  11.350   3.938   8.271
46534W        W99430  15.986  15.255   3.084
46535W        W99431   5.487  10.299   0.076
46536W        W99432  19.186  26.734   9.257
46537W        W99433  15.596  17.672   3.080
46538W        W99434  26.219  27.555   2.233
46539W        W99435  13.985  27.606   2.572
46540W        W99436   0.793  20.502   9.726
46541W        W99437   6.630  13.212   0.809
46542W        W99438  20.182   4.399   2.378
46543W        W99439  19.328  31.891   2.280
46544W        W99440  29.222  11.646   2.358
46545W        W99441   8.810   2.860   7.941
46546W        W99442   0.670  23.709   3.887
46547W        W99443  23.971   0.413   7.845
46548W        W99444   1.118  30.592   1.960
46549W        W99445  14.949  15.888   1.831
46550W        W99446  17.121   7.200  10.229
46551W        W99447  26.640  15.928   9.756
46552W        W99448   7.075  27.312   8.076
46553W        W99449   3.883  16.567   2.340
46554W        W99450  26.482   3.572   0.574
46555W        W99451  16.201  22.129   0.605
46556W        W99452   8.686  14.190   1.620
46557W        W99453   1.987  20.257   3.314
46558W        W99454  29.086  30.420   2.894
46559W        W99455  27.397  34.258   0.587
46560W        W99456  10.936  30.580   7.982
46561W        W99457  14.422  12.977   0.839
46562W        W99458  16.301  22.541   0.933
46563W        W99459   7.073  17.323  10.247
46564W        W99460   8.697  10.369   2.089
46565W        W99461  27.765  19.729   8.480
46566W        W99462  33.964  19.521   0.293
46567W        W99463  13.989  27.065   6.894
46568W        W99464  16.933   2.049   7.676
46569W        W99465  28.567  23.811   7.880
46570W        W99466  23.838   4.244   2.588
46571W        W99467   1.627  22.467   8.320
46572W        W99468   6.502  15.966   7.884
46573W        W99469  19.366   1.092   2.641
46574W        W99470  26.505   9.721   2.210
46575W        W99471   9.416   7.579   2.758
46576W        W99472  19.022  11.901  10.151
46577W        W99473  15.336  19.042   3.530
46578W        W99474   5.652  18.416   2.536
46579W        W99475  13.109  31.519   7.940
46580W        W99476  21.897  19.308   9.127
46581W        W99477  24.708  13.518   2.355
46582W        W99478  34.150   6.812   0.302
46583W        W99479  32.367  15.737   0.026
46584W        W99480   3.818  21.751   3.546
46585W        W99481  18.302   2.328   3.072
46586W        W99482  33.931   0.870   1.813
46587W        W99483  18.604  25.441   8.885
46588W        W99484  16.543  32.866   8.011
46589W        W99485   2.137  32.459   1.278
46590W        W99486  27.092   0.508   9.742
46591W        W99487  23.951   7.768   3.663
46592W        W99488  16.153  31.772   2.253
46593W        W99489  28.798   9.770   9.944
46594W        W99490  15.089   6.436   3.413
46595W        W99491  12.594  28.280   8.133
46596W        W99492  13.086  16.393   0.747
46597W        W99493  35.005  33.433   2.420
46598W        W99494   7.532  34.422   9.548
46599W        W99495  11.279   1.340   2.004
46600W        W99496   3.357  32.001   1.748
46601W        W99497  22.822  11.790   1.314
46602W        W99498   6.531  19.670   8.114
46603W        W99499  30.689  35.416   0.855
46604W        W99500   7.782  26.302   8.175
46605W        W99501  16.749   6.210   9.317
46606W        W99502  22.878  27.334   7.908
46607W        W99503  34.750   8.096   9.520
46608W        W99504   8.461  13.076   9.742
46609W        W99505  12.631  16.257   7.370
46610W        W99506   0.724  19.476   0.399
46611W        W99507   2.623  18.721   0.352
46612W        W99508  32.369   2.692   8.512
46613W        W99509  22.242  18.801   9.930
46614W        W99510   1.033  32.925   8.023
46615W        W99511   7.948  29.733  10.090
46616W        W99512  22.461   5.924   7.180
46617W        W99513  30.998   8.696   0.572
46618W        W99514  35.716  24.547   9.061
46619W        W99515  14.755   0.073   0.059
46620W        W99516  13.097   5.351   2.882
46621W        W99517  18.371  10.263  10.232
46622W        W99518   4.110  30.690   1.941
46623W        W99519  32.303  10.366   9.409
46624W        W99520  16.610  14.058   0.889
46625W        W99521  12.634  27.663   0.923
46626W        W99522  34.706  27.227   2.400
46627W        W99523  25.938  32.490   1.170
46628W        W99524   8.319  17.517   1.430
46629W        W99525   2.199  26.165   1.275
46630W        W99526   9.585  26.447   1.561
46631W        W99527   6.121  22.924   1.832
46632W        W99528  34.619  20.094   2.943
46633W        W99529  24.837   6.453   8.213
46634W        W99530  28.165   7.288   3.490
46635W        W99531  18.798  35.904   8.193
46636W        W99532  13.250  34.837   8.993
46637W        W99533  24.653  16.507   2.567
46638W        W99534  17.824  26.598   8.793
46639W        W99535   9.452  23.712   1.632
46640W        W99536  31.393  13.710   2.444
46641W        W99537   0.324   8.699   9.047
46642W        W99538  34.219  13.833   0.626
46643W        W99539  25.939   2.166   2.968
46644W        W99540  25.212   0.830   1.990
46645W        W99541   3.188  21.867   7.382
46646W        W99542   8.258   7.056   3.490
46647W        W99543  32.952   0.982   7.934
46648W        W99544  32.293  12.489   1.393
46649W        W99545  27.603   1.672   3.343
46650W        W99546  15.564  19.663   0.244
46651W        W99547  27.364   4.126   8.038
46652W        W99548  23.613  34.539   8.099
46653W        W99549  15.519  11.859   2.824
46654W        W99550  12.517   2.418   9.819
46655W        W99551  23.263  11.649   9.034
46656W        W99552  29.112   4.673   1.231
46657W        W99553  33.243  29.997   0.424
46658W        W99554   5.028  11.298   2.484
46659W        W99555  13.716  12.114   1.699
46660W        W99556  17.231  29.956   2.748
46661W        W99557   5.582  17.398   8.479
46662W        W99558  26.423   7.558   3.778
46663W        W99559  26.368   9.206   9.441
46664W        W99560  35.951  17.740   8.611
46665W        W99561  18.309   2.172   1.449
46666W        W99562  19.818   0.340   1.516
46667W        W99563   3.591   5.967   8.262
46668W        W99564  11.733  21.646   0.891
46669W        W99565  12.855  32.576   2.302
46670W        W99566  23.230  26.711   8.775
46671W        W99567  35.117  33.096   7.141
46672W        W99568  33.124   0.947   2.357
46673W        W99569   3.228   6.051   0.481
46674W        W99570   5.796  22.336   9.761
46675W        W99571  28.689  22.529   1.520
46676W        W99572  15.124  17.451   8.982
46677W        W99573   2.458   3.805   9.715
46678W        W99574  21.055  34.738   0.566
46679W        W99575  12.521  28.865   8.884
46680W        W99576  24.306  31.380   1.910
46681W        W99577  12.473   6.281   8.824
46682W        W99578  11.958  32.806   2.803
46683W        W99579   2.247  11.382   2.796
46684W        W99580  19.342  20.453   3.432
46685W        W99581  10.139  31.939   3.279
46686W        W99582   0.610  28.282   2.528
46687W        W99583  18.770  27.123   0.235
46688W        W99584   4.836  20.287   2.851
46689W        W99585   2.943   2.878   9.758
46690W        W99586  21.665  30.692   2.620
46691W        W99587  23.634  27.561   9.068
46692W        W99588   6.509  14.195   8.354
46693W        W99589  32.361  31.796   0.029
46694W        W99590  16.028  18.984   1.353
46695W        W99591  15.192  12.018   0.422
46696W        W99592  22.189  28.045   9.021
46697W        W99593   1.895  27.807   3.722
46698W        W99594  22.595  33.735   7.400
46699W        W99595  17.851   1.222   2.583
46700W        W99596   6.451   6.641   1.294
46701W        W99597  35.186  21.092   2.210
46702W        W99598  20.334  19.458   9.981
46703W        W99599   3.809  28.506   8.085
46704W        W99600  16.096   1.266   9.465
46705W        W99601  18.888   6.664  10.237
46706W        W99602   4.231  26.112   0.817
46707W        W99603   4.955   8.177  10.027
46708W        W99604  22.140   4.607   1.094
46709W        W99605  13.741  14.973   8.003
46710W        W99606   7.931  31.273   7.843
46711W        W99607   7.194  28.627   8.915
46712W        W99608  13.050  35.222   0.675
46713W        W99609  27.076  26.700   2.003
46714W        W99610  15.955  21.886  10.230
46715W        W99611  23.515  23.374   2.417
46716W        W99612  18.732   2.503   1.296
46717W        W99613   6.284  31.751   8.495
46718W        W99614  11.375  16.192   9.810
46719W        W99615  32.381  28.263   0.089
46720W        W99616  20.552  35.400   1.142
46721W        W99617   2.170   9.804   2.253
46722W        W99618   5.701  32.982   1.889
46723W        W99619  13.188  10.503   1.934
46724W        W99620   7.238  12.466   8.329
46725W        W99621  13.747   0.152   0.798
46726W        W99622  13.246  15.305   2.618
46727W        W99623  30.630  31.993   2.092
46728W        W99624  35.723  24.599   8.431
46729W        W99625   8.868   9.392   1.095
46730W        W99626  35.686   9.680   7.761
46731W        W99627   4.902  35.603   9.229
46732W        W99628  21.648  27.661   1.371
46733W        W99629   9.122  20.725   8.732
46734W        W99630  29.580  26.085   1.007
46735W        W99631  35.094  24.508   0.860
46736W        W99632   3.205  12.518   1.373
46737W        W99633  12.259  10.779   1.868
46738W        W99634  28.224  21.534   0.336
46739W        W99635   5.496   1.286   7.907
46740W        W99636   7.009  20.228   7.967
46741W        W99637  29.926  34.277   0.716
46742W        W99638  15.033  23.585   7.769
46743W        W99639   0.334  27.178   0.394
46744W        W99640   8.279   9.979   0.512
46745W        W99641   3.818  23.068   1.488
46746W        W99642   6.451   0.668   9.774
46747W        W99643   7.960  29.627   1.567
46748W        W99644  35.873  19.493   0.618
46749W        W99645   2.416  16.621   0.708
46750W        W99646   5.095  25.919   9.085
46751W        W99647   0.851  12.343   3.230
46752W        W99648  15.425  25.880   1.701
46753W        W99649  26.423  12.722   8.457
46754W        W99650   7.765  11.008   7.543
46755W        W99651  26.780  35.125   2.497
46756W        W99652   0.046  34.450   0.757
46757W        W99653  32.053  21.596   7.433
46758W        W99654  18.786  33.206   1.208
46759W        W99655  17.691   1.773   2.505
46760W        W99656  26.545  18.246   0.026
46761W        W99657  19.845  35.012   8.195
46762W        W99658   1.004  13.180   1.569
46763W        W99659  26.033   5.573   8.615
46764W        W99660  15.169  13.289   9.063
46765W        W99661  23.928  22.471  10.302
46766W        W99662  23.804   9.352   9.228
46767W        W99663  18.179  20.203  10.070
46768W        W99664  17.048  18.423   2.761
46769W        W99665   4.682   6.637   1.879
46770W        W99666  21.862   6.156   2.367
46771W        W99667   2.340  13.955   8.145
46772W        W99668  26.921  23.767   0.876
46773W        W99669  16.402  33.088   1.398
46774W        W99670   3.675   9.710   9.244
46775W        W99671   2.680  22.530   3.683
46776W        W99672  34.307  10.400   2.025
46777W        W99673   5.357  20.393   7.298
46778W        W99674   0.316  35.633   0.366
46779W        W99675  14.317  28.314   9.822
46780W        W99676  30.109  33.819   0.715
46781W        W99677  35.451   5.576   0.825
46782W        W99678  11.890  18.893   0.686
46783W        W99679  33.154   1.742   0.211
46784W        W99680  35.415  25.688   9.192
46785W        W99681   3.103  31.244   7.626
46786W        W99682  34.124   9.933   1.844
46787W        W99683  17.834  30.359   9.440
46788W        W99684  14.699  34.642   2.491
46789W        W99685   2.400  28.601   9.082
46790W        W99686  34.783   2.723   9.693
46791W        W99687   4.306  25.862   2.079
46792W        W99688  35.106   8.240   7.767
46793W        W99689  11.173  16.151   0.982
46794W        W99690  23.785  32.996   2.287
46795W        W99691  20.277  14.404   1.416
46796W        W99692  15.989  19.063   9.868
46797W        W99693  13.512   8.773   3.529
46798W        W99694  28.472  21.979   3.213
46799W        W99695  25.630   1.670   8.400
46800W        W99696   4.764  10.572   8.823
46801W        W99697   7.202   6.721   0.664
46802W        W99698  28.503  24.102   1.743
46803W        W99699   7.210  13.582   3.278
46804W        W99700  12.960   6.476   2.994
46805W        W99701   0.068   8.926   7.606
46806W        W99702  26.214  31.435   1.099
46807W        W99703  16.325  10.371   1.206
46808W        W99704  34.339  34.147   9.037
46809W        W99705  20.756  24.087   2.914
46810W        W99706  25.455  31.252   9.727
46811W        W99707  22.789  29.840   9.554
46812W        W99708  32.060  17.429   2.804
46813W        W99709  28.071  21.331   0.814
46814W        W99710   6.041  12.806   2.341
46815W        W99711  17.884   2.911   0.349
46816W        W99712   0.034  10.284   2.641
46817W        W99713   4.816   4.663   1.877
46818W        W99714  13.087   1.439   7.884
46819W        W99715  13.765   7.551   2.253
46820W        W99716  25.891  34.800  10.315
46821W        W99717  16.586   9.370   0.392
46822W        W99718  13.665  10.492   1.582
46823W        W99719  27.718  35.878   1.602
46824W        W99720  30.650   9.838   1.900
46825W        W99721  33.012   8.262   2.164
46826W        W99722  21.933  15.779   9.677
46827W        W99723  12.066  22.803   2.845
46828W        W99724   4.791  29.139   2.911
46829W        W99725   4.566  12.272   0.599
46830W        W99726  30.072  26.195   8.613
46831W        W99727  13.718  30.309   1.531
46832W        W99728  20.601   1.509   8.481
46833W        W99729  24.001  12.020   0.457
46834W        W99730  14.175  28.747   2.488
46835W        W99731  35.435  24.521   2.240
46836W        W99732  29.464   8.209   7.696
46837W        W99733   7.110  12.712   9.714
46838W        W99734   7.114  35.046   2.333
46839W        W99735   7.814  32.139   2.052
46840W        W99736  12.049  12.156   9.517
46841W        W99737  31.952  25.393   8.048
46842W        W99738  30.261  19.232   0.068
46843W        W99739   9.571  34.704   8.553
46844W        W99740  21.418  28.399   2.806
46845W        W99741  15.072  15.417   7.842
46846W        W99742  19.333  19.115   9.135
46847W        W99743   2.693  34.875   8.708
46848W        W99744  31.030  27.240   9.724
46849W        W99745  18.302   6.614   2.588
46850W        W99746  24.063   9.715   9.405
46851W        W99747  29.246   2.510  10.046
46852W        W99748   6.458  25.950  10.215
46853W        W99749  16.499   3.420   9.722
46854W        W99750   6.161  34.443   1.261
46855W        W99751  15.642  19.941   3.038
46856W        W99752  14.026  23.458   1.368
46857W        W99753  35.399  31.660   9.001
46858W        W99754   8.628  11.185   1.258
46859W        W99755  31.903  21.209  10.323
46860W        W99756  23.669  31.164   3.066
46861W        W99757  26.789  10.709   2.795
46862W        W99758  15.113  21.766   9.285
46863W        W99759  25.908   2.100   1.815
46864W        W99760   5.032   2.784   2.106
46865W        W99761  30.260   3.711   0.995
46866W        W99762   8.289   4.639   2.430
46867W        W99763  13.036  30.370   9.656
46868W        W99764  30.228  14.462   9.955
46869W        W99765   8.501  35.536   1.883
46870W        W99766   0.591  25.477   8.608
46871W        W99767  30.219  15.546   2.554
46872W        W99768  14.580  30.253   1.108
46873W        W99769  33.255   1.761   3.582
46874W        W99770  31.097  15.548   3.109
46875W        W99771  31.366  19.363   9.818
46876W        W99772   8.713  35.499   2.410
46877W        W99773  17.970   9.959   2.370
46878W        W99774  19.562  18.055   1.115
46879W        W99775  14.729   6.508   1.213
46880W        W99776   5.769  35.803   8.175
46881W        W99777  33.145  17.478   0.659
46882W        W99778  18.715   3.982   8.084
46883W        W99779   6.183  21.584   9.914
46884W        W99780  18.909  30.871   0.416
46885W        W99781   7.997  22.261   2.103
46886W        W99782  24.755  23.322   8.433
46887W        W99783  22.990   4.653   2.274
46888W        W99784  10.265  20.408   7.889
46889W        W99785  16.721  21.880   0.467
46890W        W99786   1.353   4.520   9.804
46891W        W99787  25.710  16.865   2.857
46892W        W99788   3.626  27.809   0.547
46893W        W99789  13.343   9.259   2.416
46894W        W99790  33.026   4.519   1.293
46895W        W99791   4.771  15.659   0.943
46896W        W99792   1.403  24.079  10.124
46897W        W99793  30.279  31.157   2.473
46898W        W99794  34.076  20.922   1.847
46899W        W99795   7.378  22.625   0.596
46900W        W99796  24.507  24.413   9.735
46901W        W99797  24.609   0.102   3.078
46902W        W99798   1.411  19.655   9.248
46903W        W99799  10.737  11.548   2.214
46904W        W99800  28.846  19.518   7.706
46905W        W99801  22.423  24.265   1.187
46906W        W99802  18.437  16.968   8.438
46907W        W99803   0.200  22.142   1.921
46908W        W99804  22.243   5.869   9.461
46909W        W99805  11.892  15.479   9.860
46910W        W99806  26.097  14.512   8.243
46911W        W99807  24.880  28.353   2.747
46912W        W99808  35.994   1.129   8.998
46913W        W99809   6.808   3.644   7.635
46914W        W99810  29.420  15.445   8.684
46915W        W99811  16.291  14.842   0.276
46916W        W99812   9.997   9.384   9.937
46917W        W99813  28.151  11.655   2.288
46918W        W99814   3.344  21.500   8.449
46919W        W99815  33.083   0.479  10.092
46920W        W99816  17.984  32.365   1.483
46921W        W99817  34.205  34.015   0.517
46922W        W99818  11.585   8.434   9.247
46923W        W99819  29.408  17.489   7.951
46924W        W99820  22.835  35.549   1.570
46925W        W99821   6.276  11.115   7.169
46926W        W99822  17.660  28.719   8.049
46927W        W99823   0.331   6.003   8.114
46928W        W99824  35.111  28.788   9.973
46929W        W99825   8.343  10.363   8.395
46930W        W99826   3.413  25.545   0.948
46931W        W99827  20.888  25.083   0.440
46932W        W99828  28.645  24.783   2.248
46933W        W99829  33.636  16.616   8.669
46934W        W99830  14.888   2.894   9.552
46935W        W99831  19.349  24.053   8.277
46936W        W99832   0.488  11.556   0.660
46937W        W99833  28.664  15.581   1.941
46938W        W99834   4.366  14.727   3.300
46939W        W99835  12.527   9.489   2.813
46940W        W99836  26.905  17.498   8.302
46941W        W99837  33.488  14.030  10.312
46942W        W99838   7.542  23.125   7.880
46943W        W99839  16.815   4.519   0.916
46944W        W99840  16.228   6.275   8.778
46945W        W99841  29.093  13.664   1.265
46946W        W99842  26.952  24.692   1.942
46947W        W99843  25.159   3.876   0.734
46948W        W99844  27.076  27.083   9.218
46949W        W99845  12.351  19.024   3.413
46950W        W99846  28.305  33.211  10.146
46951W        W99847  18.969  21.479   3.208
46952W        W99848  28.485  15.580   9.056
46953W        W99849   0.558  18.563   9.990
46954W        W99850  19.216   7.804   3.120
46955W        W99851   7.174  29.187  10.101
46956W        W99852  19.781  31.851   8.672
46957W        W99853  14.286  20.962   0.364
46958W        W99854   0.768  35.510   1.669
46959W        W99855   8.691  16.578   8.389
46960W        W99856   4.540   0.528   8.320
46961W        W99857  12.858  25.498   8.992
46962W        W99858  25.067  16.043   0.711
46963W        W99859  20.086  25.836   9.986
46964W        W99860  32.138  17.159   9.811
46965W        W99861  19.900  29.363   9.612
46966W        W99862  26.594  27.250   1.338
46967W        W99863  23.246  20.291   9.390
46968W        W99864  20.516  21.176   1.896
46969W        W99865   5.644  21.433   0.917
46970W        W99866  34.779  28.925   8.519
46971W        W99867  21.796  22.787   3.640
46972W        W99868  19.322  31.654  10.071
46973W        W99869  11.730  19.928   9.365
46974W        W99870  33.189   2.772   1.886
46975W        W99871  20.098  35.095   1.759
46976W        W99872  23.873  11.177   4.011
46977W        W99873  17.246   3.658   9.415
46978W        W99874  30.531  28.479   3.378
46979W        W99875  26.043   1.999   9.985
46980W        W99876   8.880   6.417   8.823
46981W        W99877   4.036  13.484   2.487
46982W        W99878  32.958  26.754  10.185
46983W        W99879  12.622  20.272   8.281
46984W        W99880   0.082  29.535   9.605
46985W        W99881  26.544   9.840   3.077
46986W        W99882  13.049  13.830   8.372
46987W        W99883  15.619  19.876   7.994
46988W        W99884   6.812   9.296   8.388
46989W        W99885  10.973  27.909   2.548
46990W        W99886   5.698  34.956   9.502
46991W        W99887   8.256   0.915   0.829
46992W        W99888   3.124   1.977   9.666
46993W        W99889  19.011  27.683   2.312
46994W        W99890  17.184  27.006   9.545
46995W        W99891  33.957  26.900   9.007
46996W        W99892  20.146  11.558   0.028
46997W        W99893  35.421   8.690   8.105
46998W        W99894  35.599  32.456  10.152
46999W        W99895  10.931  17.801   9.448
47000W        W99896  16.088   7.582   0.162
47001W        W99897  33.611  12.732   7.622
47002W        W99898  34.774   9.592   1.092
47003W        W99899  27.440  19.737   2.610
47004W        W99900  15.825  35.073   9.974
47005W        W99901  14.525  33.917   9.259
47006W        W99902   4.359   9.393   2.365
47007W        W99903  16.790   8.366   1.723
47008W        W99904  32.249  24.268   8.766
47009W        W99905   2.062  21.684   8.269
47010W        W99906  27.319  35.659   3.115
47011W        W99907  19.000  28.605   3.322
47012W        W99908  33.651  10.138   1.722
47013W        W99909  13.324  32.857   8.870
47014W        W99910  32.126  20.639   8.942
47015W        W99911  35.660  32.414   9.468
47016W        W99912   6.987  23.915   2.370
47017W        W99913  27.214  13.581   2.568
47018W        W99914   9.484  14.969   8.353
47019W        W99915  18.660  30.882   8.669
47020W        W99916  30.327   2.402   9.053
47021W        W99917  28.169  21.888   8.995
47022W        W99918  20.595   6.927   1.938
47023W        W99919  23.394  18.292   3.368
47024W        W99920   4.116  25.627   0.678
47025W        W99921  23.151  11.302   8.395
47026W        W99922  20.077  11.522   0.963
47027W        W99923  34.809   0.893   2.253
47028W        W99924  31.928   5.452   2.790
47029W        W99925  23.639   2.966   1.454
47030W        W99926   9.663  23.181   8.541
47031W        W99927   6.014  18.866   0.195
47032W        W99928   7.185  13.484   9.930
47033W        W99929  18.042  33.327   8.986
47034W        W99930  14.616   7.142   9.474
47035W        W99931  17.823   7.491   3.062
47036W        W99932  29.069  10.545   0.836
47037W        W99933  18.545   1.621   0.089
47038W        W99934   4.390   5.034   1.824
47039W        W99935  15.932  25.703   1.858
47040W        W99936  20.483  21.786   8.269
47041W        W99937  27.436  18.367  10.080
47042W        W99938   1.818   6.348   9.205
47043W        W99939   5.559  19.687   9.612
47044W        W99940  18.578  22.720   1.489
47045W        W99941  30.609  34.886   7.952
47046W        W99942  16.197   2.770   0.994
47047W        W99943  24.374  25.256   1.150
47048W        W99944  33.389   8.536   2.051
47049W        W99945   8.846   6.576   9.532
47050W        W99946  35.990  10.288   0.827
47051W        W99947  28.552   4.866   1.131
47052W        W99948  29.153   0.646   9.128
47053W        W99949  18.232  27.065   9.488
47054W        W99950  13.066  13.303   8.280
47055W        W99951   4.912   6.974   9.639
47056W        W99952  26.761  24.671   8.972
47057W        W99953  16.300  35.832   7.988
47058W        W99954   6.468  27.925   1.373
47059W        W99955  29.110  10.796   1.926
47060W        W99956  32.665   0.816   1.920
47061W        W99957   4.302   8.682   9.784
47062W        W99958   3.220  27.179   0.066
47063W        W99959  31.640   2.217   1.604
47064W        W99960  10.222   0.934   8.059
47065W        W99961   0.154  13.269   9.924
47066W        W99962  28.416  29.530   0.975
47067W        W99963  28.988   1.395   0.144
47068W        W99964  23.829  25.787   2.140
47069W        W99965  10.248   2.110   2.307
47070W        W99966   5.784  25.475   8.857
47071W        W99967  19.433  25.738   2.075
47072W        W99968  26.750  31.822   8.215
47073W        W99969  26.380  27.003   7.783
47074W        W99970  35.382  15.502   9.030
47075W        W99971  16.245  13.722   7.482
47076W        W99972  22.863   9.948   0.540
47077W        W99973   2.780  31.126   9.776
47078W        W99974  22.611  20.866   1.071
47079W        W99975  19.818   4.192   1.819
47080W        W99976  24.521  22.577   7.957
47081W        W99977   3.310  35.622   3.067
47082W        W99978   5.744   9.217   1.856
47083W        W99979  33.562   3.173   7.609
47084W        W99980  26.176  29.323   1.901
47085W        W99981  30.694  31.293   7.691
47086W        W99982  31.331  31.515   9.845
47087W        W99983  33.459  24.310   8.295
47088W        W99984   2.284  10.341   8.777
47089W        W99985  11.106  15.328   9.468
47090W        W99986   3.385  28.336   3.109
47091W        W99987  22.099   6.890   0.496
47092W        W99988  11.328   5.832   8.170
47093W        W99989  31.757  26.596  10.037
47094W        W99990  30.296  23.067   8.240
47095W        W99991  28.869  11.537   3.649
47096W        W99992   3.544  25.045   1.783
47097W        W99993   0.855  13.132   2.598
47098W        W99994  11.483  33.838  10.077
47099W        W99995   5.307  33.907   8.328
47100W        W99996  14.362  17.169   9.412
47101W        W99997  10.388  34.917   9.294
47102W        W99998   4.747  14.633   8.288
47103W        W99999   0.219  19.809   7.792
47104W        W    0   1.944  31.434   9.812
47105W        W    1  35.619  14.800   9.494
47106W        W    2  17.579  13.357   9.571
47107W        W    3  22.853   1.475   1.384
47108W        W    4  11.700  12.798   3.573
47109W        W    5  22.423  27.566   0.010
47110W        W    6   6.723  25.925   1.085
47111W        W    7   2.386  25.454  10.240
47112W        W    8  19.866   5.925   0.628
47113W        W    9  32.517   0.327   9.579
47114W        W   10   5.888   8.525   1.308
47115W        W   11  19.256  32.083   9.053
47116W        W   12  32.866  30.457   1.995
47117W        W   13  28.051  10.426   9.994
47118W        W   14  19.153  29.945   8.590
47119W        W   15  25.962  26.461   1.696
47120W        W   16  28.668  10.614   9.418
47121W        W   17  16.054   7.933   2.198
47122W        W   18  23.487  23.088   1.943
47123W        W   19   5.787  14.230   2.241
47124W        W   20  28.794   6.014   1.876
47125W        W   21  13.433  34.466   3.091
47126W        W   22   8.934   8.031   8.114
47127W        W   23  30.841   0.679   9.293
47128W        W   24  25.906  21.876   8.917
47129W        W   25  29.535  20.840   2.382
47130W        W   26   7.620   8.286   8.178
47131W        W   27  14.814   8.214   9.643
47132W        W   28   3.323   6.750   1.030
47133W        W   29  13.620  16.540   9.368
47134W        W   30   4.585  13.800   9.484
47135W        W   31   5.952  28.894   8.887
47136W        W   32  26.918  21.723   7.332
47137W        W   33   2.043   1.197   9.849
47138W        W   34  32.328  25.399  10.104
47139W        W   35   8.452  34.592   2.460
47140W        W   36  30.487  32.067   9.415
47141W        W   37  29.607  10.558   9.934
47142W        W   38  26.067  34.165   3.635
47143W        W   39   4.566   5.431   3.096
47144W        W   40   3.960  16.092  10.239
47145W        W   41  29.909  22.400   2.249
47146W        W   42  31.350   6.069   0.186
47147W        W   43  23.063   6.008   2.999
47148W        W   44  23.231  33.281   7.770
47149W        W   45  19.566  16.821   9.653
47150W        W   46  12.889  10.879   0.123
47151W        W   47  20.639  13.657   1.077
47152W        W   48   8.601  35.858   7.969
47153W        W   49  17.324   4.314   2.631
47154W        W   50  32.442   3.358   1.503
47155W        W   51  18.579  34.907  10.300
47156W        W   52  11.478   7.636   1.060
47157W        W   53  10.180   2.806   9.819
47158W        W   54  18.722  30.344   0.640
47159W        W   55   2.964   4.278   2.273
47160W        W   56  16.645  28.470   0.753
47161W        W   57  27.305  24.940   9.691
47162W        W   58  23.412  14.571   8.713
47163W        W   59  26.586  32.881   9.865
47164W        W   60  29.371   5.491   8.172
47165W        W   61   5.301   8.241   3.080
47166W        W   62  19.248   9.567   1.581
47167W        W   63  16.086  16.204   0.492
47168W        W   64   7.175  10.289   2.252
47169W        W   65   8.929  20.734   1.651
47170W        W   66  26.076   5.145   3.153
47171W        W   67  10.927  28.310   3.210
47172W        W   68  22.009  26.159   2.381
47173W        W   69  25.402  15.763   8.397
47174W        W   70  15.496  35.673   9.622
47175W        W   71  16.189   9.388   2.946
47176W        W   72  34.002  26.251   0.909
47177W        W   73   8.247  31.956   2.421
47178W        W   74  24.646   1.376   1.715
47179W        W   75  17.831  10.527   1.732
47180W        W   76  34.125  12.386   2.257
47181W        W   77   5.000  18.353   1.956
47182W        W   78  33.726  33.909   9.578
47183W        W   79  11.888  19.103  10.117
47184W        W   80   2.308  11.408   9.732
47185W        W   81  32.833   6.391   9.757
47186W        W   82  32.977  26.519   0.266
47187W        W   83  29.999   8.281   9.863
47188W        W   84  23.621   4.480   0.977
47189W        W   85   8.798  24.144   1.929
47190W        W   86  21.974  18.173   0.516
47191W        W   87  25.093  30.312   2.168
47192W        W   88  35.275  35.394   7.561
47193W        W   89  26.867  12.850   8.646
47194W        W   90   8.061  29.317   9.757
47195W        W   91   0.703  30.827   2.055
47196W        W   92  34.779  17.259   1.496
47197W        W   93  35.945  19.773   1.099
47198W        W   94  10.812  13.850   0.388
47199W        W   95  13.227   5.397   1.622
47200W        W   96  30.288   0.764   1.990
47201W        W   97   1.469   7.420   2.685
47202W        W   98  26.916  16.096   2.885
47203W        W   99  32.495  11.369   2.433
47204W        W  100  16.409  33.505   9.217
47205W        W  101  16.736  21.066   3.366
47206W        W  102  34.623  19.645   3.963
47207W        W  103   5.602  31.199   8.099
47208W        W  104   5.012   4.115   9.780
47209W        W  105  15.384  30.111   2.259
47210W        W  106  30.814  25.677   8.456
47211W        W  107   1.058  19.658   8.681
47212W        W  108   6.189  35.082   1.879
47213W        W  109  35.552  15.453   2.663
47214W        W  110   4.567  32.430   0.343
47215W        W  111  11.608  29.279   9.330
47216W        W  112  12.652  32.990   8.902
47217W        W  113  34.206   0.026   1.205
47218W        W  114  24.315  16.120   1.412
47219W        W  115  30.838  31.347  10.067
47220W        W  116  22.814   5.040   0.503
47221W        W  117  20.889  33.995   0.137
47222W        W  118  29.407  23.787   8.889
47223W        W  119   7.868  10.088   0.243
47224W        W  120  32.081  14.234   8.150
47225W        W  121   9.348  16.674   1.181
47226W        W  122  32.139  25.291   2.278
47227W        W  123  28.241  13.798   7.440
47228W        W  124  32.707  10.603  10.123
47229W        W  125  34.215  23.517   9.099
47230W        W  126   3.486  16.632   3.183
47231W        W  127  33.749  22.094   1.915
47232W        W  128   4.687   4.849   0.041
47233W        W  129  33.037  34.177   9.399
47234W        W  130  28.372  26.831   1.464
47235W        W  131  15.913  35.629   9.936
47236W        W  132  31.685  27.777   3.093
47237W        W  133  20.426  12.004   9.546
47238W        W  134  15.236  25.148   1.082
47239W        W  135  35.518  15.079   1.680
47240W        W  136   0.781   9.016   9.084
47241W        W  137   4.312  16.527   3.276
47242W        W  138  16.098  17.809   7.681
47243W        W  139  13.975  28.309   0.722
47244W        W  140  28.566  19.716   8.186
47245W        W  141  15.587  25.457   0.953
47246W        W  142  11.477  20.929   0.257
47247W        W  143  16.925  32.099   1.100
47248W        W  144   3.541   0.654   1.239
47249W        W  145   2.630  16.482   9.645
47250W        W  146  34.992   0.274   8.004
47251W        W  147  11.122  15.708   0.147
47252W        W  148  34.385   9.704   1.462
47253W        W  149  26.258  26.777   9.360
47254W        W  150  18.427  24.473   3.225
47255W        W  151  24.395   1.436   1.277
47256W        W  152  11.775   4.700   8.928
47257W        W  153  10.101  20.519   1.689
47258W        W  154  25.392   4.481   8.223
47259W        W  155  13.500  12.995  10.126
47260W        W  156   4.595  13.613   8.263
47261W        W  157   9.626   1.921  10.127
47262W        W  158  23.990   2.788   1.054
47263W        W  159   7.477  17.076   7.841
47264W        W  160  21.419  25.338   3.891
47265W        W  161  32.603   2.795   9.103
47266W        W  162  18.854   4.156   9.252
47267W        W  163  33.766   4.012   2.337
47268W        W  164  34.310   7.883   8.772
47269W        W  165  25.223   5.038   7.635
47270W        W  166  14.700   4.579   1.811
47271W        W  167   7.820   4.839   8.786
47272W        W  168  34.623  29.657   3.282
47273W        W  169  15.169   5.638   8.233
47274W        W  170  25.732  25.814   7.892
47275W        W  171  11.378   8.300   2.209
47276W        W  172  32.101  18.177   3.904
47277W        W  173  33.705   7.035   0.360
47278W        W  174  25.314  15.242   8.364
47279W        W  175  31.122  30.924   1.759
47280W        W  176  27.703  21.161   1.671
47281W        W  177  35.970  16.700   3.471
47282W        W  178  26.783  15.228  10.220
47283W        W  179   4.779  32.105   8.494
47284W        W  180  19.913  31.550   1.140
47285W        W  181  15.784  27.698   8.641
47286W        W  182  14.395  25.188   8.802
47287W        W  183  12.754  19.468   7.747
47288W        W  184  14.160   0.536   7.985
47289W        W  185  11.125  33.115   2.559
47290W        W  186  16.458  22.831   2.212
47291W        W  187   2.268  13.841   3.657
47292W        W  188  22.679  19.687   9.390
47293W        W  189  16.837   3.197   1.004
47294W        W  190  19.975   9.597   9.441
47295W        W  191  12.661  15.046   9.504
47296W        W  192   5.886   6.028   7.816
47297W        W  193   9.616  19.273   1.000
47298W        W  194   0.020   4.346   0.742
47299W        W  195   5.323  24.603   8.515
47300W        W  196   5.709   3.836   1.322
47301W        W  197   2.272   1.047   8.633
47302W        W  198  24.435  28.105   0.714
47303W        W  199   4.682  12.078   9.058
47304W        W  200  22.574   9.926   8.002
47305W        W  201  22.897   0.782   3.213
47306W        W  202  28.100  11.093   2.862
47307W        W  203  10.925   8.132   2.472
47308W        W  204  32.939  10.671   8.286
47309W        W  205  28.235  22.368   0.689
47310W        W  206  33.582  21.276   3.004
47311W        W  207  14.051  16.654   0.297
47312W        W  208  10.608   8.181   2.818
47313W        W  209   7.165  26.307   3.248
47314W        W  210  34.063   5.206   7.972
47315W        W  211   1.180  22.206   8.089
47316W        W  212  12.361   9.664   8.253
47317W        W  213  15.400  15.518   0.654
47318W        W  214  10.564  11.600   1.709
47319W        W  215  21.856  32.797   7.847
47320W        W  216  13.793  24.677  10.322
47321W        W  217  28.876   8.580  10.169
47322W        W  218  11.774   9.291   2.387
47323W        W  219   3.043  13.260   0.444
47324W        W  220   2.672   9.960   3.262
47325W        W  221   0.176   3.250   1.828
47326W        W  222  10.559   5.017   2.254
47327W        W  223  28.750  17.298   1.868
47328W        W  224  18.496  25.805   2.897
47329W        W  225   3.521  35.913   8.452
47330W        W  226  20.160   6.002   9.632
47331W        W  227  27.114  10.788   1.935
47332W        W  228  35.567  35.762   2.142
47333W        W  229  10.978  13.135   0.283
47334W        W  230  23.251  25.595   2.796
47335W        W  231  21.978  30.934   1.772
47336W        W  232  21.896  16.691   0.874
47337W        W  233  32.221   6.503   8.674
47338W        W  234   7.768  34.543   7.247
47339W        W  235  27.623   4.115   8.845
47340W        W  236  35.336  33.809   7.805
47341W        W  237   7.328  20.149   8.984
47342W        W  238  32.178  29.948   2.477
47343W        W  239  30.229  20.366  10.093
47344W        W  240   9.738  31.827   9.467
47345W        W  241  33.826  15.116   8.898
47346W        W  242  34.771  13.483   2.633
47347W        W  243  11.695  18.478   1.618
47348W        W  244   4.437   7.580   7.564
47349W        W  245   0.285   0.743   8.874
47350W        W  246   4.464  33.653   9.657
47351W        W  247  14.009  14.183   8.006
47352W        W  248  19.072  14.412   0.887
47353W        W  249  29.666   8.647   2.919
47354W        W  250  26.216  32.607   9.611
47355W        W  251  28.924   3.027   2.965
47356W        W  252  10.865  14.564   2.710
47357W        W  253   2.039  35.450   3.033
47358W        W  254  24.604  10.037   1.068
47359W        W  255   2.767  34.736   9.685
47360W        W  256  25.137   7.951   9.150
47361W        W  257  18.141  27.962   8.263
47362W        W  258  31.783  34.646   0.318
47363W        W  259  28.303   4.873   8.556
47364W        W  260  10.939  21.289   6.864
47365W        W  261  18.649  30.888   3.243
47366W        W  262  15.056  17.761  10.002
47367W        W  263   6.034   0.533   1.837
47368W        W  264   2.088  10.609   2.467
47369W        W  265   8.380   2.573   1.553
47370W        W  266  26.742  26.377   0.380
47371W        W  267  30.659  33.520   0.020
47372W        W  268  26.423  28.145   0.255
47373W        W  269  20.939   7.568   0.767
47374W        W  270   1.493  19.446   3.738
47375W        W  271  25.162  13.809   9.422
47376W        W  272  27.438   3.753   9.423
47377W        W  273   9.176  11.667   8.328
47378W        W  274  16.521  21.314   8.131
47379W        W  275  24.366  22.037   0.514
47380W        W  276  28.216  19.680   8.615
47381W        W  277  21.688   9.122   1.714
47382W        W  278  26.496  35.854   1.964
47383W        W  279  22.617  28.546   8.181
47384W        W  280  17.876  19.008   3.440
47385W        W  281  24.872  13.348   9.600
47386W        W  282  20.404  19.712   7.922
47387W        W  283  18.855  29.671   9.557
47388W        W  284  20.363  34.230   2.441
47389W        W  285  21.800  29.871   7.654
47390W        W  286   6.323  14.097   2.244
47391W        W  287  11.635   6.562   0.879
47392W        W  288  11.887   7.312   9.706
47393W        W  289  29.062  22.835   9.140
47394W        W  290  33.877   4.080   0.314
47395W        W  291   7.266   3.738   3.424
47396W        W  292   7.555   0.209   9.078
47397W        W  293  21.468   8.340  10.214
47398W        W  294  10.665  21.814   1.617
47399W        W  295   3.393  23.195   9.348
47400W        W  296  20.178  30.817   2.311
47401W        W  297   1.260  32.009   1.741
47402W        W  298  22.691   3.546   0.576
47403W        W  299   9.103  21.454   0.987
47404W        W  300   9.527  20.626  10.097
47405W        W  301  23.947  10.024   2.046
47406W        W  302  22.688  23.973   9.736
47407W        W  303  31.253  16.982   8.842
47408W        W  304  30.892  35.389   8.654
47409W        W  305  17.013  33.821   7.644
47410W        W  306  32.978  13.785   9.105
47411W        W  307   1.387  27.217   3.226
47412W        W  308  35.607   6.032   0.882
47413W        W  309  12.503  10.313   9.752
47414W        W  310  35.456  25.830   8.185
47415W        W  311  21.551  12.393   7.415
47416W        W  312  29.487  28.983   9.499
47417W        W  313  29.936  19.973   0.593
47418W        W  314  18.452  14.607   8.643
47419W        W  315  13.102  34.453   6.920
47420W        W  316  16.054  31.676   0.928
47421W        W  317  11.346   2.576   8.426
47422W        W  318   3.798  13.065   1.881
47423W        W  319  10.172   4.281   0.883
47424W        W  320  23.978  30.845   7.060
47425W        W  321   5.351   3.053   1.126
47426W        W  322  26.260   9.324   1.296
47427W        W  323   2.600  23.146   2.979
47428W        W  324  28.133  12.893   2.852
47429W        W  325  14.514  18.321   1.640
47430W        W  326  27.541   3.715  10.105
47431W        W  327  34.617  26.344   1.534
47432W        W  328   0.386   0.913   2.813
47433W        W  329   4.761   6.639   9.073
47434W        W  330   5.996  29.213   0.757
47435W        W  331  11.879  10.933   9.386
47436W        W  332  13.052  17.375   8.099
47437W        W  333   6.867  25.506   8.635
47438W        W  334  30.829  20.019   2.437
47439W        W  335  25.927  28.056   0.287
47440W        W  336  17.855  20.254   9.413
47441W        W  337  21.816  34.356   3.026
47442W        W  338  17.813  22.735   1.859
47443W        W  339  16.034  35.611   0.983
47444W        W  340  30.884   3.897   9.697
47445W        W  341  16.102  33.429   0.073
47446W        W  342   7.137   7.704   7.651
47447W        W  343   3.866  30.925   9.904
47448W        W  344  14.422   9.641   0.384
47449W        W  345  33.662  23.764   9.968
47450W        W  346  26.872   1.416   1.090
47451W        W  347  16.024  20.606   9.765
47452W        W  348  11.858  17.788   9.276
47453W        W  349   5.077  21.925   2.223
47454W        W  350  31.214  29.154   8.896
47455W        W  351  24.658  11.296   3.034
47456W        W  352   3.510  26.770   9.200
47457W        W  353  35.138  18.333   0.537
47458W        W  354  14.735  16.274   2.052
47459W        W  355  35.832   5.912   3.030
47460W        W  356  26.723  28.731   9.754
47461W        W  357  12.981   7.012   2.960
47462W        W  358  17.842  19.313   9.811
47463W        W  359  30.821   2.135   7.487
47464W        W  360   5.095  18.850   9.475
47465W        W  361  16.502  28.464   7.595
47466W        W  362   1.161  18.448   8.312
47467W        W  363  34.875   8.758   9.413
47468W        W  364  34.369   8.641   7.949
47469W        W  365   8.512  27.907   2.171
47470W        W  366  28.304   6.957   7.439
47471W        W  367  12.159   0.277   9.825
47472W        W  368  33.356  31.705   8.375
47473W        W  369   6.817   9.943   2.009
47474W        W  370  25.716  11.617   8.931
47475W        W  371  28.839  13.239   7.842
47476W        W  372  17.860   3.842   1.656
47477W        W  373  19.026  18.686   8.909
47478W        W  374  16.198  28.596   8.429
47479W        W  375  20.660  27.980   8.302
47480W        W  376   5.043  29.124   2.106
47481W        W  377   9.598  30.097   8.976
47482W        W  378  23.572   5.882   2.016
47483W        W  379  17.184   5.636   0.937
47484W        W  380   1.316   1.053   7.077
47485W        W  381  15.594  26.721   1.404
47486W        W  382  29.404   0.227   9.860
47487W        W  383  32.514  31.618   1.137
47488W        W  384  24.497  13.139   1.309
47489W        W  385   2.731  16.521   3.121
47490W        W  386  14.396  20.781   0.984
47491W        W  387  17.708  14.836   7.623
47492W        W  388   1.744  15.198   9.247
47493W        W  389  16.975  22.500   9.148
47494W        W  390  24.092  26.229   3.732
47495W        W  391  10.551  18.973   8.396
47496W        W  392  31.184  30.642   8.217
47497W        W  393   7.847  25.242   9.446
47498W        W  394   1.595  24.104   2.743
47499W        W  395  35.500   8.933   0.983
47500W        W  396  31.741   5.873   2.988
47501W        W  397   8.285  13.612   2.133
47502W        W  398   6.956   9.064   2.669
47503W        W  399  20.176  35.045   1.252
47504W        W  400  31.502  27.174   2.369
47505W        W  401  35.702  24.918   9.388
47506W        W  402  21.189  12.498   1.807
47507W        W  403   7.359  23.771   0.393
47508W        W  404  19.894  30.600   2.672
47509W        W  405  15.157   3.016   9.921
47510W        W  406  27.329   2.828   3.040
47511W        W  407  22.460  17.386   9.752
47512W        W  408  29.409  19.393   8.333
47513W        W  409   6.130  18.410   7.802
47514W        W  410  23.105  10.275   3.974
47515W        W  411  28.551   3.993  10.009
47516W        W  412  13.401  13.269   0.671
47517W        W  413  27.673  12.818   0.013
47518W        W  414  28.169  24.505   2.956
47519W        W  415  21.743  26.721   1.106
47520W        W  416  23.031  11.657   0.144
47521W        W  417  31.318  10.311   9.031
47522W        W  418  13.820   1.308   2.212
47523W        W  419   5.063  16.511   3.190
47524W        W  420  15.940   7.115   1.285
47525W        W  421  16.218   6.702   8.616
47526W        W  422  26.198  12.624  10.232
47527W        W  423  15.112   4.368   2.009
47528W        W  424  23.590  34.087   2.430
47529W        W  425  17.892  17.676   0.080
47530W        W  426  18.481  18.077   7.734
47531W        W  427  10.472   2.780  10.255
47532W        W  428  29.859  33.480   0.493
47533W        W  429  21.428  12.971   0.956
47534W        W  430  20.143   5.590   7.785
47535W        W  431  33.466  14.698   2.317
47536W        W  432   5.356  18.812   8.537
47537W        W  433  27.853  33.035   2.484
47538W        W  434  31.798  13.929   0.401
47539W        W  435  33.165   6.093   9.539
47540W        W  436  16.635   6.749   0.361
47541W        W  437  24.454  26.297   8.884
47542W        W  438  31.757  35.382   2.974
47543W        W  439  18.804  21.458  10.108
47544W        W  440   2.883   4.439   8.616
47545W        W  441  20.965  30.920  10.108
47546W        W  442  35.958  34.609   2.643
47547W        W  443   2.677  23.863   3.538
47548W        W  444  27.263   0.065   9.899
47549W        W  445   1.712   9.929   9.165
47550W        W  446  33.664  14.208   9.769
47551W        W  447  13.059  20.869   1.862
47552W        W  448   0.190   9.414   2.879
47553W        W  449   1.322   2.302  10.311
47554W        W  450  13.163   0.267   0.821
47555W        W  451  28.656  20.352   8.093
47556W        W  452  36.007  11.133   1.196
47557W        W  453  24.194  35.118   8.517
47558W        W  454  34.463  26.421   1.053
47559W        W  455  16.264  20.589   0.785
47560W        W  456   1.043  22.795   2.022
47561W        W  457  31.031  13.840   0.043
47562W        W  458   3.973  10.085   9.968
47563W        W  459  11.665   8.854   8.345
47564W        W  460   6.866   6.408   3.037
47565W        W  461  17.768   4.777   1.995
47566W        W  462  22.020  24.188   3.289
47567W        W  463  11.391  10.907   2.428
47568W        W  464  22.408  31.570   8.350
47569W        W  465  24.665  16.299   1.107
47570W        W  466  16.052  21.427   1.137
47571W        W  467  14.230   4.741   1.879
47572W        W  468  18.117  15.935   2.892
47573W        W  469  20.365  29.525   8.435
47574W        W  470   1.312  18.144   3.013
47575W        W  471  33.066  26.210   9.734
47576W        W  472   2.483   6.149   3.106
47577W        W  473  12.870  26.266   2.616
47578W        W  474  11.691   8.655   9.874
47579W        W  475   6.058  16.251   9.176
47580W        W  476  12.616  12.773  10.025
47581W        W  477   5.068  26.510   0.662
47582W        W  478  13.563   7.658   8.154
47583W        W  479  34.741  13.133   8.324
47584W        W  480  10.044  12.128   0.051
47585W        W  481   2.752  25.934   3.006
47586W        W  482  19.049  26.628   1.474
47587W        W  483  32.130  16.393   8.563
47588W        W  484  17.224   0.982   1.595
47589W        W  485  27.944  16.203   9.308
47590W        W  486  21.860   9.046   2.605
47591W        W  487  21.439  28.901   8.887
47592W        W  488  16.897  33.610   7.186
47593W        W  489   2.262  25.300   0.812
47594W        W  490   0.874  10.204   3.812
47595W        W  491  26.277  25.948   1.726
47596W        W  492  33.011  16.064   2.990
47597W        W  493  31.578  19.096   0.269
47598W        W  494  14.246  30.906   9.679
47599W        W  495  14.847  23.745   2.692
47600W        W  496  20.877   9.534   1.315
47601W        W  497  21.029  15.749   8.207
47602W        W  498   0.319   5.667  10.087
47603W        W  499   5.868  21.877   9.601
47604W        W  500  13.446  33.957   9.227
47605W        W  501  12.840   7.784   0.332
47606W        W  502  18.535  25.337   3.233
47607W        W  503  35.700  17.814   3.922
47608W        W  504   1.389   3.513   0.140
47609W        W  505  16.417  31.967   9.057
47610W        W  506  25.220  14.404   9.542
47611W        W  507  15.417  20.564   0.435
47612W        W  508  11.382  25.345   1.908
47613W        W  509   0.828   7.967   2.094
47614W        W  510  14.325  27.882   0.146
47615W        W  511  36.013  34.542   7.831
47616W        W  512   0.687  15.836  10.300
47617W        W  513  14.851  27.817   2.453
47618W        W  514  28.425   1.647   9.986
47619W        W  515  11.596  26.286   1.662
47620W        W  516   5.407  28.281   1.711
47621W        W  517  10.564  27.268   7.687
47622W        W  518  17.844   4.940  10.087
47623W        W  519  24.810  23.021   7.975
47624W        W  520   6.564   2.059   9.373
47625W        W  521   8.039   5.976   8.394
47626W        W  522   9.316   9.468   0.769
47627W        W  523   2.311   9.444   0.348
47628W        W  524  25.838   4.937   8.370
47629W        W  525  30.349  33.472   0.432
47630W        W  526  30.209  34.216   2.922
47631W        W  527  20.226  19.548   0.167
47632W        W  528  28.985  24.975   2.695
47633W        W  529  20.664  27.751   1.624
47634W        W  530  23.399   2.467   8.497
47635W        W  531  17.861  31.688   2.982
47636W        W  532  23.353  12.267   9.729
47637W        W  533  16.015  21.568   9.093
47638W        W  534  17.629  16.792   3.263
47639W        W  535   8.706  17.686   7.347
47640W        W  536  27.133  29.471   0.986
47641W        W  537   1.784  32.109   1.468
47642W        W  538  14.501  35.795   8.557
47643W        W  539  26.932  15.563   0.803
47644W        W  540  23.303  27.078   7.342
47645W        W  541   7.632   1.253   2.911
47646W        W  542  22.611  29.944   9.072
47647W        W  543  28.304  23.835   2.133
47648W        W  544  13.028  24.857   2.029
47649W        W  545  34.363  24.206  10.245
47650W        W  546  21.296  29.322   8.159
47651W        W  547  33.628   2.794  10.299
47652W        W  548   2.950  20.061   8.918
47653W        W  549  18.077   4.749   9.700
47654W        W  550   5.003  10.310   9.959
47655W        W  551  13.010   2.411   8.635
47656W        W  552  33.496  10.113   0.429
47657W        W  553  30.812  17.711   2.838
47658W        W  554  13.404   4.353   8.881
47659W        W  555  21.396  28.400   0.016
47660W        W  556  32.999   0.110   3.084
47661W        W  557  25.511  10.770   8.244
47662W        W  558  24.234  14.858   3.619
47663W        W  559   7.445  13.878   9.760
47664W        W  560  21.036  27.073   2.690
47665W        W  561   3.347  32.514  10.117
47666W        W  562  19.611  22.332   2.167
47667W        W  563  24.498  14.046   3.263
47668W        W  564  29.411  15.310   1.393
47669W        W  565   1.325  12.051   2.262
47670W        W  566  24.599  31.053   8.016
47671W        W  567  11.014  26.022   1.020
47672W        W  568   8.209   6.731   0.769
47673W        W  569  20.717  24.013  10.257
47674W        W  570  12.338  31.150   2.924
47675W        W  571   7.187  34.297   7.725
47676W        W  572  13.980  29.152   2.249
47677W        W  573   5.718  28.464   8.988
47678W        W  574   8.903  14.951   8.649
47679W        W  575  31.442  11.089  10.233
47680W        W  576  21.608  14.174   1.299
47681W        W  577  34.565   5.414   8.249
47682W        W  578   0.794   9.813   2.509
47683W        W  579  28.585   6.877   9.728
47684W        W  580  25.234  11.188   8.011
47685W        W  581  15.539  12.818   3.130
47686W        W  582   9.602   1.328   8.799
47687W        W  583   8.165  35.134   8.266
47688W        W  584  10.003  11.072   1.161
47689W        W  585  10.668  25.867   2.990
47690W        W  586  15.082   1.715  10.183
47691W        W  587   1.647   3.644   0.560
47692W        W  588  35.887  31.801   8.250
47693W        W  589   0.647  29.300   1.493
47694W        W  590  24.386  31.981   7.698
47695W        W  591  34.740  14.928   1.609
47696W        W  592  35.005   6.495   9.336
47697W        W  593  11.721   4.296   0.031
47698W        W  594  34.900  17.642   0.023
47699W        W  595  19.706  10.340   0.704
47700W        W  596  12.889  20.460   0.911
47701W        W  597  14.510  31.396   3.457
47702W        W  598  28.296  34.297   2.314
47703W        W  599  25.089  33.000   9.270
47704W        W  600  22.761  26.027   8.436
47705W        W  601  21.418  15.343   2.477
47706W        W  602  22.112  11.823   8.157
47707W        W  603  14.541   6.977   2.105
47708W        W  604  15.004  23.518   2.265
47709W        W  605  33.623  22.417  10.318
47710W        W  606  32.048  13.426   8.136
47711W        W  607  12.785   7.464   9.195
47712W        W  608   1.085  32.255   7.998
47713W        W  609  14.126  16.708   9.516
47714W        W  610   6.307   0.272   2.333
47715W        W  611  23.679   2.458   9.039
47716W        W  612  33.517  26.026   9.374
47717W        W  613  23.431  14.099   3.469
47718W        W  614   5.380   9.618   0.621
47719W        W  615  21.068  26.830   3.114
47720W        W  616   4.246   7.202   2.430
47721W        W  617  14.722  30.440   3.487
47722W        W  618  15.361   4.555   2.438
47723W        W  619  11.870   3.726   2.138
47724W        W  620  23.256  22.966   2.396
47725W        W  621  13.280  21.093   8.551
47726W        W  622   4.284  23.061   8.877
47727W        W  623  26.142  13.377   9.575
47728W        W  624  21.233  21.419   9.743
47729W        W  625  25.247  28.622   7.683
47730W        W  626  27.828  34.479   0.118
47731W        W  627  33.036   1.459  10.089
47732W        W  628   4.527  30.027   8.302
47733W        W  629   5.440  29.182  10.186
47734W        W  630  16.899  17.912   8.988
47735W        W  631  14.835  22.183   8.090
47736W        W  632  30.399  15.876   2.862
47737W        W  633  17.471  14.772   7.193
47738W        W  634  26.923   3.014   2.057
47739W        W  635   5.612   5.438  10.194
47740W        W  636  12.167  27.789   0.576
47741W        W  637  10.703  19.823   8.772
47742W        W  638  12.876   5.644   2.578
47743W        W  639   3.421   1.199   8.828
47744W        W  640  33.701  19.771   0.641
47745W        W  641   2.400   0.209   1.383
47746W        W  642  31.739  33.871   8.439
47747W        W  643  25.046  21.230  10.277
47748W        W  644  27.473   4.632   2.279
47749W        W  645   8.478  35.249   7.492
47750W        W  646   4.828   2.284   1.321
47751W        W  647   8.791  26.460   0.698
47752W        W  648  20.713  29.436   9.078
47753W        W  649  22.717  11.793   9.255
47754W        W  650  20.297  20.651   9.744
47755W        W  651  14.294  14.799   2.517
47756W        W  652  17.962  31.596   2.151
47757W        W  653   8.191   0.676   7.451
47758W        W  654  30.717  28.662   8.590
47759W        W  655  34.724  33.293   1.135
47760W        W  656   0.868  26.277   0.681
47761W        W  657  17.000  22.769   1.382
47762W        W  658   0.037  16.028   9.228
47763W        W  659  12.982  13.196   1.838
47764W        W  660  12.175  21.275   8.408
47765W        W  661   8.656  15.246   9.560
47766W        W  662  28.208  14.230   7.812
47767W        W  663  32.783  21.393   9.399
47768W        W  664   5.190  35.734   2.713
47769W        W  665  21.708  33.083   9.884
47770W        W  666  28.437   0.893   8.074
47771W        W  667  17.712  13.291   0.383
47772W        W  668  18.635  26.295   8.058
47773W        W  669  22.643   1.041   2.258
47774W        W  670  16.751  25.116   9.796
47775W        W  671  10.273   3.315   7.949
47776W        W  672  27.058  22.600   7.288
47777W        W  673  24.865  34.350   9.480
47778W        W  674  35.265   1.413   8.765
47779W        W  675  11.612   0.165   0.871
47780W        W  676  28.410  14.491   0.218
47781W        W  677  29.799   4.028   8.263
47782W        W  678  21.388   1.128   9.295
47783W        W  679   1.863   4.243   7.941
47784W        W  680  23.114  35.063  10.277
47785W        W  681   5.310   5.737   9.904
47786W        W  682  16.800  17.231   0.271
47787W        W  683  26.553  12.652   8.957
47788W        W  684   3.433  34.241   2.456
47789W        W  685  23.735  12.985   1.078
47790W        W  686  25.317  35.558   1.556
47791W        W  687  24.932  25.298   7.579
47792W        W  688  17.466  14.100   1.100
47793W        W  689  35.366  20.984   9.303
47794W        W  690  22.044   3.334   1.746
47795W        W  691  20.033  11.967   8.919
47796W        W  692  26.803  20.502   2.180
47797W        W  693  18.989  30.751   2.311
47798W        W  694   6.694  15.126   0.441
47799W        W  695  20.393  10.338   1.188
47800W        W  696  21.406  25.854   6.950
47801W        W  697  30.968  27.091  10.245
47802W        W  698   9.423   9.490   1.261
47803W        W  699  22.822   6.974   9.798
47804W        W  700   3.380   2.330   1.452
47805W        W  701  11.151  18.432   7.950
47806W        W  702   9.998  28.248   8.664
47807W        W  703  22.986  23.447   0.380
47808W        W  704  14.142   1.542   1.885
47809W        W  705   5.925   6.484   7.630
47810W        W  706  26.155  12.733   2.335
47811W        W  707   0.278  19.825   0.726
47812W        W  708  24.718   2.798   1.712
47813W        W  709  13.886  24.596   2.606
47814W        W  710  13.582   8.090   0.408
47815W        W  711   2.585   0.198   0.570
47816W        W  712  34.683  10.796   9.942
47817W        W  713  22.742  27.770   8.287
47818W        W  714   2.217  19.689   0.093
47819W        W  715  26.390  16.073   2.644
47820W        W  716   9.634  11.556   9.964
47821W        W  717  26.285  19.128   2.220
47822W        W  718   7.232  33.172   8.808
47823W        W  719  13.434  32.591   0.663
47824W        W  720  30.024   5.085   2.848
47825W        W  721  16.125  14.447  10.225
47826W        W  722  18.352  11.413   8.081
47827W        W  723   6.328   2.923   2.080
47828W        W  724  29.197   5.055   2.892
47829W        W  725  34.308  25.286   7.355
47830W        W  726  26.607  16.413   1.197
47831W        W  727  17.149   6.460   8.634
47832W        W  728  15.039   2.204   1.427
47833W        W  729   0.013  31.777   2.519
47834W        W  730  27.863   9.490   8.444
47835W        W  731   9.839  14.829   2.226
47836W        W  732   1.945  19.665   9.196
47837W        W  733  14.241  20.693   9.346
47838W        W  734   9.317  22.946   8.227
47839W        W  735  35.371  20.306   0.721
47840W        W  736   4.228  15.580   2.628
47841W        W  737  11.011  22.002   8.522
47842W        W  738  18.663  33.048   1.768
47843W        W  739   1.468  10.379   9.136
47844W        W  740   3.848  32.637   3.960
47845W        W  741   9.383   0.501   0.546
47846W        W  742  25.241  18.275   1.752
47847W        W  743   0.855  25.128   3.401
47848W        W  744   9.488  32.968   7.517
47849W        W  745   7.940  12.188   8.617
47850W        W  746   2.987  22.107   3.160
47851W        W  747   5.082  32.895   2.886
47852W        W  748  29.747   9.277   2.115
47853W        W  749  20.075  13.148   9.540
47854W        W  750  23.194  10.991  10.002
47855W        W  751   7.098  19.611   9.759
47856W        W  752  18.062  13.142   9.565
47857W        W  753  34.307  35.071   9.483
47858W        W  754   0.955   7.779   0.694
47859W        W  755  21.708  12.073   8.009
47860W        W  756   9.036   7.342   9.975
47861W        W  757   9.412   7.937   2.377
47862W        W  758   8.390  24.341   7.720
47863W        W  759  28.407   7.505   8.509
47864W        W  760  30.629   5.255   8.054
47865W        W  761  18.168  16.209   1.606
47866W        W  762  28.387  28.778   2.931
47867W        W  763  11.932   1.690   7.572
47868W        W  764   9.337  30.462   2.522
47869W        W  765  35.537  14.627   8.975
47870W        W  766  34.542  21.479   1.125
47871W        W  767   8.622  35.773   2.879
47872W        W  768  13.525  25.445   2.545
47873W        W  769   8.064  22.539   9.759
47874W        W  770   3.456  10.882   0.713
47875W        W  771   7.106  22.146   1.516
47876W        W  772  26.190  17.382   8.791
47877W        W  773  12.038   8.673   1.552
47878W        W  774  26.713   3.009   1.073
47879W        W  775  17.399  35.837   2.707
47880W        W  776   6.218  33.775   9.595
47881W        W  777   8.719  15.374   2.093
47882W        W  778  25.700   8.547   1.982
47883W        W  779  24.237  22.628   9.911
47884W        W  780  28.448  33.801   8.355
47885W        W  781  26.205  15.532   8.131
47886W        W  782  14.693  10.823   1.369
47887W        W  783   1.333   7.391   8.410
47888W        W  784  21.332  20.589  10.324
47889W        W  785  26.285  19.726   3.063
47890W        W  786  28.807   0.229   0.465
47891W        W  787  13.454  16.662   8.873
47892W        W  788   3.346   4.914  10.009
47893W        W  789   6.391  24.611   8.407
47894W        W  790  10.947  35.971   7.680
47895W        W  791  18.194  14.673   1.847
47896W        W  792  15.831   1.806   1.514
47897W        W  793  34.038  17.666   9.516
47898W        W  794   7.103   3.809   8.499
47899W        W  795   8.303  32.987   9.599
47900W        W  796  25.594   2.887   1.541
47901W        W  797   8.707   9.499   9.000
47902W        W  798  24.640  28.180   9.272
47903W        W  799  23.779  23.374   8.399
47904W        W  800   2.994   0.850   3.071
47905W        W  801  27.165  30.124   7.727
47906W        W  802  12.309  29.298   9.441
47907W        W  803  26.233  31.141   7.655
47908W        W  804   6.577  35.419   1.946
47909W        W  805  32.096   4.080   7.457
47910W        W  806   7.164  20.878   0.177
47911W        W  807   7.371   1.527   2.618
47912W        W  808  27.897  20.734   2.625
47913W        W  809   6.649   8.324   7.470
47914W        W  810  34.609  30.605   1.514
47915W        W  811  32.933   1.637   8.291
47916W        W  812  21.079  23.113   7.643
47917W        W  813  14.133  13.771   1.225
47918W        W  814  32.868   8.582   7.274
47919W        W  815  33.450  13.263  10.026
47920W        W  816  25.499  31.585   9.328
47921W        W  817  34.408  25.207   1.152
47922W        W  818  22.690  12.303   1.099
47923W        W  819  28.021   2.497   0.437
47924W        W  820  29.022  10.076   3.633
47925W        W  821  32.485  30.447   3.126
47926W        W  822  30.386  35.458   3.220
47927W        W  823   4.281  21.462   9.749
47928W        W  824  12.465   7.286   8.876
47929W        W  825  12.237   0.687  10.265
47930W        W  826   1.084  27.495   2.730
47931W        W  827   6.838   8.361   8.102
47932W        W  828  18.839  28.913   9.854
47933W        W  829  17.129  11.434   9.662
47934W        W  830  21.339  34.149  10.159
47935W        W  831   0.441  31.027   7.318
47936W        W  832  18.446   3.884   9.448
47937W        W  833  35.092  13.883   1.201
47938W        W  834  10.742  24.565   9.643
47939W        W  835  11.494  29.776   9.108
47940W        W  836  17.124  32.418   8.800
47941W        W  837  16.391  18.415   1.767
47942W        W  838  26.188  28.826   9.452
47943W        W  839  22.607  14.919   8.433
47944W        W  840   4.369  13.018   8.418
47945W        W  841  18.995  26.421   1.923
47946W        W  842  11.258   3.150   9.009
47947W        W  843  35.471  21.252   0.219
47948W        W  844   1.737  17.101   1.374
47949W        W  845  31.614  16.343   1.894
47950W        W  846  19.722  11.001   8.883
47951W        W  847   8.411  29.924   1.415
47952W        W  848  27.823   0.066   0.909
47953W        W  849   4.625  27.908   8.846
47954W        W  850  32.424  33.160   1.490
47955W        W  851  21.864  22.681   9.974
47956W        W  852  35.533   8.254   2.558
47957W        W  853   6.778  29.452   1.091
47958W        W  854   8.621   8.577   7.384
47959W        W  855   5.054   3.004   2.575
47960W        W  856  21.553  28.616   7.351
47961W        W  857   3.288  16.635   0.934
47962W        W  858  34.336  28.559   0.120
47963W        W  859   0.778  24.377   8.182
47964W        W  860   6.053  15.431   1.278
47965W        W  861  18.479   2.289   2.554
47966W        W  862  23.182  33.475   9.593
47967W        W  863  35.590  30.399   8.367
47968W        W  864   6.997  20.296   8.601
47969W        W  865  18.128  28.961   8.338
47970W        W  866   4.730  27.591   8.465
47971W        W  867   6.626  34.284   2.580
47972W        W  868  25.891   6.808   0.794
47973W        W  869  34.676  34.308   7.864
47974W        W  870  35.623  26.658   9.021
47975W        W  871  27.087  25.749   1.721
47976W        W  872  18.135   1.921   0.712
47977W        W  873  12.422   2.741   0.257
47978W        W  874  13.708  35.565  10.242
47979W        W  875  11.895  11.050   0.474
47980W        W  876  11.823  28.723   0.779
47981W        W  877  16.107   1.196   2.891
47982W        W  878   5.513  17.196   0.298
47983W        W  879  24.373  12.788   9.118
47984W        W  880   5.621   9.162   0.717
47985W        W  881  26.343  32.064   8.135
47986W        W  882  21.853   1.663   7.809
47987W        W  883   8.580  12.800   8.800
47988W        W  884   3.753  13.644   1.511
47989W        W  885   3.965  25.709   3.348
47990W        W  886  17.640   1.735   0.801
47991W        W  887  28.357  26.307   9.991
47992W        W  888  12.615   2.954   3.250
47993W        W  889   6.894  33.339   7.520
47994W        W  890  15.152  13.447   1.029
47995W        W  891  28.459  32.216   9.730
47996W        W  892   0.193   5.836   1.651
47997W        W  893  11.158  19.808   1.686
47998W        W  894  17.556  34.078   8.552
47999W        W  895  13.579  35.731   1.093
48000W        W  896  29.217   8.899   0.272
48001W        W  897  27.990  20.637   9.702
48002W        W  898  27.151  32.571   8.241
48003W        W  899   1.252  20.060   0.029
48004W        W  900  32.616  30.591  10.308
48005W        W  901  24.882  32.488   9.370
48006W        W  902   1.114  20.694   8.505
48007W        W  903  26.819   4.439   0.429
48008W        W  904  35.256  23.951   3.093
48009W        W  905  29.377   6.057   8.216
48010W        W  906  26.293   1.036   0.103
48011W        W  907  21.064  11.110  10.245
48012W        W  908  15.125  15.107   2.418
48013W        W  909  23.311   0.193   8.425
48014W        W  910   8.359  16.983   9.034
48015W        W  911  28.276  25.741   7.423
48016W        W  912  19.894   2.129   8.161
48017W        W  913  34.433  18.151  10.173
48018W        W  914   7.400  13.595   1.113
48019W        W  915   9.371  28.816   9.610
48020W        W  916   8.868  30.506   8.720
48021W        W  917  14.054   2.595   7.889
48022W        W  918  33.076  15.226   8.370
48023W        W  919   1.750  35.274   2.227
48024W        W  920  32.327  32.078   8.304
48025W        W  921  34.268  13.026   0.257
48026W        W  922  17.210  29.053   9.659
48027W        W  923  10.305   2.750   2.970
48028W        W  924   6.385  25.616   0.844
48029W        W  925   2.243   2.975   9.745
48030W        W  926  16.547  23.225   1.704
48031W        W  927  11.210   6.710   2.782
48032W        W  928  22.916  35.099   8.659
48033W        W  929   0.087   8.354   8.456
48034W        W  930   7.775  13.373   7.954
48035W        W  931  25.122   2.655   1.885
48036W        W  932  27.743  14.837   2.983
48037W        W  933   6.605  14.833   0.846
48038W        W  934  24.026   3.507   8.578
48039W        W  935  16.991  29.259   2.181
48040W        W  936  28.475   6.945   3.575
48041W        W  937  34.135  18.781   2.258
48042W        W  938  35.432  19.176   9.251
48043W        W  939   9.428   5.803   2.317
48044W        W  940   4.059  34.945  10.168
48045W        W  941  31.150  13.723   8.024
48046W        W  942  23.958  32.586   9.243
48047W        W  943  22.283  16.056   0.718
48048W        W  944  20.101   8.671   2.641
48049W        W  945  19.527  13.991   8.162
48050W        W  946   1.490   5.297  10.063
48051W        W  947  28.773   0.894   8.912
48052W        W  948   2.987  18.500   8.450
48053W        W  949  26.224   6.997   1.291
48054W        W  950  22.038  27.170   7.274
48055W        W  951  23.720  19.873  10.011
48056W        W  952  24.937  35.336  10.204
48057W        W  953  34.562   1.332   2.255
48058W        W  954  32.544   2.174   3.216
48059W        W  955  21.498  34.107   8.585
48060W        W  956  28.437   4.214   2.258
48061W        W  957   6.779  28.946   7.538
48062W        W  958  29.102  27.615   7.694
48063W        W  959  13.108   2.992  10.221
48064W        W  960  12.924  15.694   1.479
48065W        W  961   8.369   6.794   2.120
48066W        W  962  15.535  32.399   2.834
48067W        W  963  35.345  26.801   0.191
48068W        W  964  25.587  10.654   9.672
48069W        W  965  23.546  34.359   1.406
48070W        W  966  33.319   5.663   7.794
48071W        W  967  28.473   0.333   8.041
48072W        W  968  17.919  16.592   3.637
48073W        W  969  25.421  24.271   1.943
48074W        W  970  12.913  19.703  10.028
48075W        W  971  12.109  21.790   0.376
48076W        W  972  21.442  19.085   1.943
48077W        W  973  15.551   4.483   9.851
48078W        W  974  31.889  24.470   9.060
48079W        W  975  15.924  35.661   7.745
48080W        W  976  29.505  11.789   9.679
48081W        W  977  11.946  31.483   1.492
48082W        W  978  29.133  22.854   2.509
48083W        W  979  27.859   6.683   1.835
48084W        W  980   6.797  31.346   3.029
48085W        W  981   9.961  11.901   7.020
48086W        W  982  28.448  12.187  10.325
48087W        W  983  16.685  13.224   8.190
48088W        W  984  20.192   5.897   2.881
48089W        W  985  13.749  29.313   2.756
48090W        W  986  29.799   4.319   0.338
48091W        W  987  28.730  22.093   0.894
48092W        W  988   3.622  25.368   8.375
48093W        W  989  10.252  25.153   1.860
48094W        W  990  31.413  28.194   0.943
48095W        W  991  20.227  26.812   0.492
48096W        W  992  28.373  35.628   9.679
48097W        W  993   9.556  25.417   9.250
48098W        W  994  27.360  19.113   9.560
48099W        W  995  35.587   3.574   3.647
48100W        W  996   4.486  30.996   9.836
48101W        W  997  16.176  31.804   2.768
48102W        W  998  30.963  14.381   0.054
48103W        W  999  19.996  10.253   8.801
48104W        W 1000  28.246   6.755   1.416
48105W        W 1001   0.398   4.509   1.606
48106W        W 1002  11.625  18.224   7.082
48107W        W 1003  29.776  11.389   9.657
48108W        W 1004  26.222  35.621   3.688
48109W        W 1005  29.805  29.704   0.660
48110W        W 1006   8.225   2.074   3.151
48111W        W 1007  22.949   1.269   8.838
48112W        W 1008  25.694  27.467   0.285
48113W        W 1009   8.093   9.961   2.472
48114W        W 1010   9.953  30.662   9.029
48115W        W 1011   6.917   1.668   3.352
48116W        W 1012  18.954  16.926   1.128
48117W        W 1013   9.331  25.513   2.884
48118W        W 1014   7.875   1.808   3.450
48119W        W 1015  15.133   8.816   1.104
48120W        W 1016  23.916  30.116   9.531
48121W        W 1017   5.379  33.235   8.941
48122W        W 1018  34.183   8.014   2.753
48123W        W 1019  35.396  11.305   7.929
48124W        W 1020   0.944   8.684   0.944
48125W        W 1021  31.129  12.651   0.408
48126W        W 1022  12.548  13.914   2.077
48127W        W 1023   3.845  18.656  10.289
48128W        W 1024  25.765  16.463   0.611
48129W        W 1025  25.231  16.745   9.102
48130W        W 1026  30.010  25.393   9.911
48131W        W 1027  15.252  21.173   9.699
48132W        W 1028  31.102  32.535   9.930
48133W        W 1029  17.595  10.407   7.893
48134W        W 1030  30.532  27.167   8.960
48135W        W 1031  33.410  35.629   9.874
48136W        W 1032  27.030  32.138   6.956
48137W        W 1033  32.282  22.916   9.795
48138W        W 1034  13.787   5.862   2.617
48139W        W 1035   4.839   0.147   2.824
48140W        W 1036   0.797  21.705   1.357
48141W        W 1037  18.244  30.905   0.274
48142W        W 1038  30.732  22.615   0.347
48143W        W 1039  22.939  13.323   1.688
48144W        W 1040  23.999   9.214   1.674
48145W        W 1041  13.857   5.654   8.280
48146W        W 1042  14.535  21.271   0.094
48147W        W 1043   1.392  17.942   8.525
48148W        W 1044  28.626  25.481   0.929
48149W        W 1045  12.509  27.648   1.994
48150W        W 1046  31.627  24.425   9.506
48151W        W 1047  11.310   9.334   2.195
48152W        W 1048  30.864   4.227  10.143
48153W        W 1049  19.779   0.624   7.570
48154W        W 1050  30.195  15.906   3.311
48155W        W 1051  22.895  32.071   0.048
48156W        W 1052  30.791  20.238   0.866
48157W        W 1053  27.014  23.725  10.020
48158W        W 1054  22.292  11.085   9.017
48159W        W 1055   5.081  20.580   1.937
48160W        W 1056  26.214  18.047   7.068
48161W        W 1057  29.022  20.109   1.141
48162W        W 1058   5.360  30.644   8.842
48163W        W 1059  12.088   9.137   9.192
48164W        W 1060   1.648  15.557   3.748
48165W        W 1061  17.254  33.852   9.273
48166W        W 1062  28.150  25.752   0.166
48167W        W 1063  35.853  17.431   3.065
48168W        W 1064  34.828  25.059   2.724
48169W        W 1065   2.862  14.517   9.933
48170W        W 1066  21.510  32.705   1.897
48171W        W 1067  24.863  28.457   2.289
48172W        W 1068  31.141  30.613   7.432
48173W        W 1069   8.808  29.985   9.599
48174W        W 1070  17.902  26.527   8.317
48175W        W 1071  23.379  10.474   9.997
48176W        W 1072  35.612   4.937  10.301
48177W        W 1073   1.912  12.824   8.753
48178W        W 1074   2.764  29.593   9.541
48179W        W 1075  17.886   7.664   1.658
48180W        W 1076  27.428  27.122   1.861
48181W        W 1077   2.117  11.706   1.067
48182W        W 1078   5.686  30.938   0.634
48183W        W 1079   1.688  24.058   9.700
48184W        W 1080   5.750  26.112   8.131
48185W        W 1081   7.107   6.871   9.015
48186W        W 1082   0.311   0.498  10.190
48187W        W 1083  10.320  16.818   0.300
48188W        W 1084   9.600  26.326   9.877
48189W        W 1085  31.503   5.207   0.075
48190W        W 1086  11.430  33.858   1.469
48191W        W 1087  11.652  35.028   7.878
48192W        W 1088  19.103  34.362   1.368
48193W        W 1089  14.734  24.889   2.787
48194W        W 1090  23.191  23.855   3.087
48195W        W 1091  26.640  14.598   8.978
48196W        W 1092  11.803   3.792   8.387
48197W        W 1093  23.994  10.442   8.951
48198W        W 1094  18.036  35.891  10.253
48199W        W 1095  31.008   1.542   1.921
48200W        W 1096  32.348  12.311   3.187
48201W        W 1097   0.788   1.328   2.038
48202W        W 1098  33.426  34.392   2.204
48203W        W 1099  32.052  17.019   1.671
48204W        W 1100   4.629  21.966   1.208
48205W        W 1101  21.273  34.522   8.556
48206W        W 1102  23.437   3.885   2.165
48207W        W 1103  16.531  34.746   8.928
48208W        W 1104   7.904  18.705   0.385
48209W        W 1105  14.414  29.680   9.246
48210W        W 1106  16.898  24.977   1.837
48211W        W 1107  32.378   7.121   0.606
48212W        W 1108   9.001  25.583   7.700
48213W        W 1109  11.211  24.942   2.186
48214W        W 1110  11.987  16.415   1.966
48215W        W 1111  18.443  30.470   8.909
48216W        W 1112   3.431  20.116   2.200
48217W        W 1113  31.574  23.017   9.070
48218W        W 1114   0.974  22.287   8.977
48219W        W 1115   5.984   8.788   1.973
48220W        W 1116  17.636  17.298   9.101
48221W        W 1117  33.348  30.667   2.254
48222W        W 1118   5.410  31.383   8.986
48223W        W 1119  24.146  25.624   9.472
48224W        W 1120   9.942  29.812   7.328
48225W        W 1121  29.115  10.580   7.832
48226W        W 1122   5.378   0.431   3.274
48227W        W 1123  21.238  24.862   3.667
48228W        W 1124  31.967   8.161   7.709
48229W        W 1125   4.741  35.310   2.148
48230W        W 1126  31.127  19.168   9.207
48231W        W 1127  30.883   5.120   1.745
48232W        W 1128  21.758  29.275   2.057
48233W        W 1129   2.796  35.668   0.678
48234W        W 1130  13.918  30.670   8.320
48235W        W 1131  13.593   9.791   7.869
48236W        W 1132  17.349  29.691  10.117
48237W        W 1133  19.042  32.825   8.302
48238W        W 1134  32.675  33.653   0.755
48239W        W 1135  31.079  13.702   2.813
48240W        W 1136  22.993   1.559   8.382
48241W        W 1137  22.026  10.925   9.406
48242W        W 1138  11.621   9.691   2.047
48243W        W 1139  29.508   5.113   8.660
48244W        W 1140   9.566  12.936   7.561
48245W        W 1141  11.575  15.197   1.679
48246W        W 1142  10.556   5.140   0.849
48247W        W 1143   3.524  13.511   2.827
48248W        W 1144  25.336  25.952   9.053
48249W        W 1145   4.256   7.946   3.099
48250W        W 1146  11.661   7.356   1.433
48251W        W 1147  13.740  23.019   2.044
48252W        W 1148  15.212  30.644   1.724
48253W        W 1149  29.400  10.745   2.371
48254W        W 1150  33.463  19.110   9.604
48255W        W 1151  21.736   2.846   8.531
48256W        W 1152  24.182  17.192   8.600
48257W        W 1153  10.088   4.000   2.573
48258W        W 1154  14.385   3.557   8.312
48259W        W 1155  35.338  33.038   2.442
48260W        W 1156  14.041   6.685   2.115
48261W        W 1157   6.686   8.093   9.618
48262W        W 1158  14.455  24.039   2.943
48263W        W 1159  29.163  15.274   8.237
48264W        W 1160  15.403  14.207   7.656
48265W        W 1161   1.250   9.279   0.601
48266W        W 1162  29.856  20.455   0.807
48267W        W 1163  15.607  31.568   8.694
48268W        W 1164  24.014   4.295   7.402
48269W        W 1165   7.369  16.473   9.587
48270W        W 1166  16.940  32.013   3.141
48271W        W 1167  31.783   8.656   0.179
48272W        W 1168  33.043  31.477   3.269
48273W        W 1169  17.701   8.655   8.122
48274W        W 1170   7.880  30.362   7.155
48275W        W 1171  19.369  13.575   8.333
48276W        W 1172  20.885  32.677   2.757
48277W        W 1173   9.462  26.355   8.369
48278W        W 1174  35.783  21.116   8.106
48279W        W 1175  25.790   2.791   1.059
48280W        W 1176   1.462  22.456   3.192
48281W        W 1177  15.661  14.827   1.624
48282W        W 1178  22.794  19.886   8.680
48283W        W 1179  29.411  11.370   8.313
48284W        W 1180  20.877  34.429   9.425
48285W        W 1181   0.824  27.304   2.331
48286W        W 1182  33.629  24.379   9.165
48287W        W 1183  21.991  33.894   1.899
48288W        W 1184  33.998   9.694   8.180
48289W        W 1185  21.269  19.461   2.747
48290W        W 1186  19.852   4.856   8.077
48291W        W 1187  22.678  35.736   0.925
48292W        W 1188   7.574  13.332   9.021
48293W        W 1189  12.539  21.272   9.853
48294W        W 1190  21.761  35.423   1.206
48295W        W 1191  28.472  10.172   0.659
48296W        W 1192  18.961  14.345   9.170
48297W        W 1193  14.517  25.564   1.331
48298W        W 1194  28.592  11.780   3.355
48299W        W 1195   7.054   6.731   1.913
48300W        W 1196   3.073  27.812   9.834
48301W        W 1197  16.559  15.956   8.503
48302W        W 1198  17.986  11.066   8.117
48303W        W 1199  26.489  29.129   7.555
48304W        W 1200  22.354   1.722   0.692
48305W        W 1201  22.526   5.795   3.650
48306W        W 1202  13.166  10.378   0.674
48307W        W 1203  11.887   9.882   8.086
48308W        W 1204  22.260  16.103   1.629
48309W        W 1205  15.470   8.669   2.540
48310W        W 1206  25.835  12.103   2.418
48311W        W 1207   1.479  11.118   4.135
48312W        W 1208  19.708  22.413   9.001
48313W        W 1209   0.044  32.448   8.914
48314W        W 1210  15.877  27.105   2.694
48315W        W 1211  10.593  32.077   3.263
48316W        W 1212  21.003  18.492   8.083
48317W        W 1213  16.031  34.778  10.281
48318W        W 1214   2.179  19.407   1.939
48319W        W 1215  13.205  10.746   1.476
48320W        W 1216  25.327  14.176   8.443
48321W        W 1217  16.184  26.053   9.197
48322W        W 1218  32.837   8.046   8.086
48323W        W 1219  14.254  19.291   1.491
48324W        W 1220  12.768  13.387  10.321
48325W        W 1221   1.059   0.127   9.739
48326W        W 1222   0.193  12.261   7.803
48327W        W 1223  13.413   2.678   8.544
48328W        W 1224  12.234   5.043   2.507
48329W        W 1225  27.843  27.820   0.355
48330W        W 1226  11.085  15.028   3.478
48331W        W 1227  15.113  34.252   9.239
48332W        W 1228  29.808  27.597   9.407
48333W        W 1229   4.624  22.446   7.945
48334W        W 1230   5.676  34.883  10.021
48335W        W 1231   6.139  12.254   8.569
48336W        W 1232  35.366   6.067   2.049
48337W        W 1233  24.286   6.465   0.311
48338W        W 1234  18.563  15.097   8.487
48339W        W 1235  32.061  31.744   9.936
48340W        W 1236  34.475  31.804   0.715
48341W        W 1237  13.218   3.948   9.211
48342W        W 1238  23.075   4.420   0.898
48343W        W 1239  19.000   0.626   8.583
48344W        W 1240  17.692   5.769   0.019
48345W        W 1241  32.908  21.105   7.947
48346W        W 1242  14.182   1.876  10.250
48347W        W 1243  32.507  35.091   8.157
48348W        W 1244  15.663   0.273   1.431
48349W        W 1245  34.855  28.267   9.306
48350W        W 1246  20.242   1.824   1.072
48351W        W 1247  13.914  34.982  10.255
48352W        W 1248   8.750  21.472   2.222
48353W        W 1249  15.356   6.716   2.533
48354W        W 1250  16.233  33.221   6.686
48355W        W 1251   9.126   2.059   1.408
48356W        W 1252  26.876  20.475   2.714
48357W        W 1253  29.417   7.028   2.583
48358W        W 1254  14.008   0.559   0.652
48359W        W 1255  15.904   8.277   3.228
48360W        W 1256  25.874  27.872   7.959
48361W        W 1257  27.677   3.792   1.542
48362W        W 1258  29.906  24.946   3.204
48363W        W 1259  19.278   1.693   8.243
48364W        W 1260  29.842  10.431   0.535
48365W        W 1261  32.593  19.826   2.261
48366W        W 1262   0.211  16.476   9.351
48367W        W 1263  12.393  33.376   2.150
48368W        W 1264   9.310   8.071   1.151
48369W        W 1265  18.368  25.453   9.766
48370W        W 1266  14.241  26.057   9.842
48371W        W 1267  34.344  28.332   0.587
48372W        W 1268  18.371  31.810   0.297
48373W        W 1269   0.517  10.694   0.557
48374W        W 1270  26.419  10.615  10.012
48375W        W 1271  28.265  34.520   7.365
48376W        W 1272  22.878  25.683   9.304
48377W        W 1273  29.904  26.115   0.210
48378W        W 1274   1.583  27.239   1.972
48379W        W 1275  10.003   0.205   9.622
48380W        W 1276  30.931   0.201   7.206
48381W        W 1277  19.072  35.268   1.645
48382W        W 1278  15.680   1.341   0.360
48383W        W 1279   1.789  14.722   8.564
48384W        W 1280  34.442   7.193   7.351
48385W        W 1281  22.759  20.167   9.501
48386W        W 1282   6.378  12.247  10.012
48387W        W 1283  19.493  13.169   8.094
48388W        W 1284  28.674  34.418   2.844
48389W        W 1285  22.827  28.859  10.282
48390W        W 1286  24.273  23.917   8.336
48391W        W 1287   5.858   9.594   2.147
48392W        W 1288  16.912  33.434  10.148
48393W        W 1289   0.254  21.831   7.913
48394W        W 1290  23.879  20.093   1.475
48395W        W 1291  17.271  16.777   1.562
48396W        W 1292  32.618   3.652   8.744
48397W        W 1293  18.471  24.907   1.198
48398W        W 1294   9.059   3.582   2.819
48399W        W 1295  16.690  16.624   3.435
48400W        W 1296  31.220  33.983   7.618
48401W        W 1297  16.213   0.203   1.843
48402W        W 1298   3.062  35.764   7.854
48403W        W 1299  19.375   3.857   3.270
48404W        W 1300  32.427   6.468   2.705
48405W        W 1301   9.643  21.341   1.717
48406W        W 1302  17.863  25.986  10.090
48407W        W 1303  17.358   3.868   3.043
48408W        W 1304  27.254  11.575   8.695
48409W        W 1305  27.652  10.222   2.701
48410W        W 1306  32.505  27.566   1.441
48411W        W 1307  29.820  20.294   0.173
48412W        W 1308  17.268  18.096   3.793
48413W        W 1309  30.676  33.829   9.443
48414W        W 1310  14.760  35.454   8.167
48415W        W 1311  24.501   1.510   7.994
48416W        W 1312  34.173  16.851   8.952
48417W        W 1313   0.752  30.949   2.817
48418W        W 1314  27.550  32.272   9.520
48419W        W 1315   2.385  35.578   3.454
48420W        W 1316  16.892  27.027   1.444
48421W        W 1317  23.174  26.910   9.304
48422W        W 1318   8.890  23.697   8.289
48423W        W 1319   5.488  30.683   0.212
48424W        W 1320  10.743  14.503   0.256
48425W        W 1321  11.454   2.687   6.650
48426W        W 1322   3.055  24.062   8.096
48427W        W 1323  17.687  33.077   0.090
48428W        W 1324  16.461   5.993   3.291
48429W        W 1325  10.588  22.134   6.553
48430W        W 1326  15.747   8.219   9.724
48431W        W 1327  19.037  25.487   0.196
48432W        W 1328  18.534  35.095   1.585
48433W        W 1329   8.250   2.502   0.988
48434W        W 1330  23.623   4.578   1.512
48435W        W 1331  14.246   5.505   8.535
48436W        W 1332  31.214  29.492   8.514
48437W        W 1333  32.683  14.192   8.210
48438W        W 1334  11.066  16.817   8.183
48439W        W 1335  34.195  27.318  10.315
48440W        W 1336  14.779   4.234   0.847
48441W        W 1337  30.296  22.764   2.499
48442W        W 1338   9.134  23.128   9.508
48443W        W 1339  29.987  21.072   9.809
48444W        W 1340  18.374  31.931   9.200
48445W        W 1341  13.649  19.714   0.850
48446W        W 1342  28.350   8.656   9.899
48447W        W 1343   9.541  35.583  10.183
48448W        W 1344  17.684   7.749   2.477
48449W        W 1345  18.850  34.867   2.568
48450W        W 1346  26.910  31.735   1.687
48451W        W 1347  15.222  28.035   8.013
48452W        W 1348   9.145   8.628   7.400
48453W        W 1349  22.015  16.216   1.164
48454W        W 1350  34.914  18.372   9.436
48455W        W 1351  20.683   8.739   0.507
48456W        W 1352  27.124   6.647   9.274
48457W        W 1353  26.041  23.602   9.620
48458W        W 1354  23.611  22.082   9.749
48459W        W 1355   7.209  23.125   8.730
48460W        W 1356  12.425  34.268   1.735
48461W        W 1357  28.073  12.549   0.131
48462W        W 1358  35.259  29.973   0.913
48463W        W 1359  32.114   4.615   9.130
48464W        W 1360   1.845  33.993   8.486
48465W        W 1361   7.855  27.425   9.677
48466W        W 1362  22.877  33.530   3.379
48467W        W 1363  33.552  29.284   2.370
48468W        W 1364   8.187  22.950   3.036
48469W        W 1365  23.384  14.548   0.141
48470W        W 1366  29.465  23.580   0.476
48471W        W 1367   4.752  31.628   8.554
48472W        W 1368  16.607   9.580   3.352
48473W        W 1369  32.296   5.608   9.903
48474W        W 1370  19.797   3.908   0.456
48475W        W 1371  19.708  13.401   2.040
48476W        W 1372   9.944  26.956   7.392
48477W        W 1373   4.363   3.619   0.271
48478W        W 1374  21.432  24.139   9.406
48479W        W 1375   1.096  34.018   3.845
48480W        W 1376  14.166   0.940   1.077
48481W        W 1377  23.266  10.467   2.546
48482W        W 1378  35.726  34.939   8.482
48483W        W 1379  28.000  14.863   0.194
48484W        W 1380  18.008  17.170   2.013
48485W        W 1381  35.107  30.019   8.942
48486W        W 1382  16.862  15.381   0.660
48487W        W 1383   0.001  15.468   0.525
48488W        W 1384  34.743  32.565   4.023
48489W        W 1385  10.409  34.084   0.759
48490W        W 1386  33.491  28.493   1.554
48491W        W 1387  14.893   7.505   7.834
48492W        W 1388   4.726   0.859   8.630
48493W        W 1389  13.290   3.877   9.763
48494W        W 1390  35.645   2.985   9.232
48495W        W 1391  26.164  14.396   2.023
48496W        W 1392   8.888   4.591   9.927
48497W        W 1393   5.217  28.207   1.260
48498W        W 1394  14.401  31.704  10.254
48499W        W 1395  30.219  12.591   8.867
48500W        W 1396  17.949  22.817   3.260
48501W        W 1397  10.173  29.995   8.240
48502W        W 1398  33.462  22.105   1.471
48503W        W 1399  16.775  20.948   0.177
48504W        W 1400   6.693  18.413   0.204
48505W        W 1401  27.996  18.134   8.656
48506W        W 1402  15.036  20.056   1.373
48507W        W 1403  31.150   9.356   0.118
48508W        W 1404  33.439  20.376   0.583
48509W        W 1405  20.774  32.641   0.975
48510W        W 1406   7.775  24.042   0.391
48511W        W 1407  20.218   6.873   8.004
48512W        W 1408   1.955  10.575   1.815
48513W        W 1409  20.734  15.792   0.111
48514W        W 1410  22.834  27.392   1.117
48515W        W 1411  19.581  18.261   2.443
48516W        W 1412   3.671   0.712   8.427
48517W        W 1413  16.580  16.987   1.229
48518W        W 1414   9.988  10.624   0.858
48519W        W 1415  30.229  16.730   2.339
48520W        W 1416  29.299  34.531   7.638
48521W        W 1417  14.878  32.582   8.886
48522W        W 1418  28.158   3.720   0.889
48523W        W 1419  10.746  11.787   0.577
48524W        W 1420  23.816   1.476   0.354
48525W        W 1421  33.636  35.914   3.084
48526W        W 1422  34.616   6.291   8.491
48527W        W 1423   5.518   0.852   3.052
48528W        W 1424   8.817  13.810   2.672
48529W        W 1425  26.647  27.701   7.107
48530W        W 1426   0.553   1.547   1.654
48531W        W 1427  22.335  24.726   8.970
48532W        W 1428  33.691  33.279   2.073
48533W        W 1429  16.224  25.103   9.110
48534W        W 1430  26.335   9.670   7.844
48535W        W 1431  12.834  12.059   7.234
48536W        W 1432  29.458  23.911   9.475
48537W        W 1433   4.245  15.962   9.268
48538W        W 1434   9.817  24.570   7.850
48539W        W 1435   8.982  22.857   8.636
48540W        W 1436  31.387  25.807   9.910
48541W        W 1437  20.863   8.517   2.832
48542W        W 1438  15.201  13.252  10.217
48543W        W 1439  23.014  14.677   1.716
48544W        W 1440  17.849  20.298   2.396
48545W        W 1441   5.594   7.098   0.139
48546W        W 1442  31.214   5.164   7.957
48547W        W 1443   3.891  15.854   0.689
48548W        W 1444   4.084  25.953  10.184
48549W        W 1445  25.465  16.722   1.498
48550W        W 1446   5.628  28.053   0.194
48551W        W 1447  25.564  32.078   0.658
48552W        W 1448  13.038  12.908   0.038
48553W        W 1449  14.454  23.450   8.658
48554W        W 1450   0.933  22.923   0.843
48555W        W 1451   9.446   3.175   1.529
48556W        W 1452   9.622  26.011   0.629
48557W        W 1453  17.724   5.594   0.961
48558W        W 1454   2.035  20.975   9.842
48559W        W 1455  13.495  31.322   8.259
48560W        W 1456   2.946  11.338   3.159
48561W        W 1457   4.492   5.789   0.179
48562W        W 1458  12.594   8.166   8.040
48563W        W 1459   2.782  23.851   2.005
48564W        W 1460  26.433   2.042   2.046
48565W        W 1461  14.640  35.043   3.138
48566W        W 1462   8.905  10.918  10.226
48567W        W 1463   0.883   6.238   9.514
48568W        W 1464  13.541  17.363   0.473
48569W        W 1465  26.712  15.103   0.706
48570W        W 1466  30.387   9.430   8.532
48571W        W 1467   3.819  13.275   4.172
48572W        W 1468  23.986  17.261   0.205
48573W        W 1469  10.068   3.354   9.556
48574W        W 1470  31.541  31.587   0.518
48575W        W 1471  34.961  23.547   1.071
48576W        W 1472  31.896  22.596   1.814
48577W        W 1473  11.536   2.946   8.103
48578W        W 1474  14.834   3.087   0.342
48579W        W 1475  27.555  12.061   0.270
48580W        W 1476  28.734  12.239   9.790
48581W        W 1477   2.137   8.504   2.165
48582W        W 1478  31.140  14.038   3.175
48583W        W 1479  14.220   3.254   7.521
48584W        W 1480   0.666  21.446   8.708
48585W        W 1481  11.814   6.689   3.639
48586W        W 1482  34.067  21.416   2.878
48587W        W 1483  20.468   0.089  10.161
48588W        W 1484  30.087  15.511   7.440
48589W        W 1485  16.769  14.361   1.349
48590W        W 1486   0.304  29.946  10.034
48591W        W 1487  20.034  32.665   0.279
48592W        W 1488  11.754  32.388   9.247
48593W        W 1489  11.626  21.078   8.784
48594W        W 1490  31.652  10.979   7.764
48595W        W 1491  19.660   6.659   2.600
48596W        W 1492   8.528  19.110   3.026
48597W        W 1493  18.143  10.776   9.471
48598W        W 1494  15.438  18.447   1.387
48599W        W 1495   6.749  27.401   8.800
48600W        W 1496  33.175  32.482   1.186
48601W        W 1497  28.775   0.529   1.276
48602W        W 1498   7.110   9.240   3.267
48603W        W 1499  34.051  11.613   7.236
48604W        W 1500  31.664  27.976   2.585
48605W        W 1501  18.069  12.024  10.060
48606W        W 1502   3.637  28.138   1.629
48607W        W 1503   0.987   7.650  10.127
48608W        W 1504  27.336  28.285   1.046
48609W        W 1505  34.788  15.797   1.789
48610W        W 1506   5.417   5.668   1.335
48611W        W 1507  24.946  32.146   9.847
48612W        W 1508  14.395  24.445   2.728
48613W        W 1509   0.264  10.793   9.574
48614W        W 1510   2.596  27.546   2.604
48615W        W 1511  25.345  26.546   9.742
48616W        W 1512   8.731  21.727   8.101
48617W        W 1513  20.696  28.189   8.789
48618W        W 1514  33.091  27.226   0.904
48619W        W 1515   3.919  24.821   1.565
48620W        W 1516  14.066  13.246   1.219
48621W        W 1517  10.964  14.414   1.110
48622W        W 1518   1.753  16.536   0.890
48623W        W 1519  31.168  15.564   9.897
48624W        W 1520   3.508   1.599   0.029
48625W        W 1521   2.015   7.521   0.118
48626W        W 1522  31.119  30.856   2.802
48627W        W 1523  16.883  35.076   0.566
48628W        W 1524   4.510  15.687   3.209
48629W        W 1525  31.112  28.955   0.500
48630W        W 1526  23.062  29.241   9.364
48631W        W 1527  34.183   7.513   2.846
48632W        W 1528   6.990  24.777   2.712
48633W        W 1529  17.774  34.557   9.729
48634W        W 1530   0.311   1.290  10.334
48635W        W 1531  22.406   2.233   8.001
48636W        W 1532  33.404  28.103   8.728
48637W        W 1533  15.217   0.532   8.730
48638W        W 1534  25.750  35.334   0.532
48639W        W 1535  18.210  22.020   8.182
48640W        W 1536   0.993  13.252   0.758
48641W        W 1537   2.820  30.684   1.613
48642W        W 1538  18.753   9.698   8.823
48643W        W 1539   1.383  23.121   8.908
48644W        W 1540  18.713  20.478   8.014
48645W        W 1541  30.717  17.656   1.443
48646W        W 1542  21.805   3.354   8.695
48647W        W 1543   8.509  12.508  10.053
48648W        W 1544  13.295  26.827   1.464
48649W        W 1545  33.058   9.022   7.783
48650W        W 1546   5.994  11.007   9.261
48651W        W 1547   2.195  34.304   8.339
48652W        W 1548  35.173  31.105   2.015
48653W        W 1549  15.556  28.314   7.325
48654W        W 1550  22.097  31.865   8.769
48655W        W 1551  15.983  34.028   2.209
48656W        W 1552  30.651  22.423   2.396
48657W        W 1553  34.331  29.656   8.603
48658W        W 1554  14.569   0.403   0.418
48659W        W 1555  35.254  32.835  10.125
48660W        W 1556  25.864  32.563   9.069
48661W        W 1557  22.774  33.392   3.916
48662W        W 1558  10.719  15.433   1.402
48663W        W 1559  32.772  11.580   8.247
48664W        W 1560  17.538   2.722   1.215
48665W        W 1561  29.458  35.596   2.984
48666W        W 1562  27.340   8.437   1.279
48667W        W 1563  28.622   7.708   3.233
48668W        W 1564  30.887  33.314   8.595
48669W        W 1565  23.392   9.659   7.947
48670W        W 1566   1.785  25.127   2.881
48671W        W 1567   0.389   3.296   8.725
48672W        W 1568  16.569   3.843   2.886
48673W        W 1569   4.386   1.705   2.347
48674W        W 1570   1.700  24.142   0.273
48675W        W 1571  20.105  16.796   1.591
48676W        W 1572   9.847   3.416   7.111
48677W        W 1573  28.968  23.595   0.655
48678W        W 1574  31.553   0.539   8.508
48679W        W 1575   1.768   9.480   8.768
48680W        W 1576  33.264  10.797   1.200
48681W        W 1577  31.396   0.067   1.443
48682W        W 1578  29.808  35.907   7.935
48683W        W 1579  27.501  19.919   8.844
48684W        W 1580   5.151  21.031   9.795
48685W        W 1581  21.968  16.501   2.140
48686W        W 1582  12.046  31.130   9.016
48687W        W 1583  19.859   5.098   1.287
48688W        W 1584  26.490   3.860   2.359
48689W        W 1585   5.947  23.022   8.463
48690W        W 1586   2.490  24.277   1.971
48691W        W 1587   1.130  11.897   1.350
48692W        W 1588   6.800   0.610   2.497
48693W        W 1589  26.248   4.369   3.667
48694W        W 1590   0.525  29.668   9.702
48695W        W 1591  32.739  27.274   1.829
48696W        W 1592  13.138   5.815   3.705
48697W        W 1593  28.894  14.618   0.093
48698W        W 1594   0.460   4.764   0.597
48699W        W 1595  32.748   8.206  10.103
48700W        W 1596   3.260  27.203   3.248
48701W        W 1597  30.231   8.534   6.826
48702W        W 1598  29.274  34.463   9.248
48703W        W 1599   4.855  28.573   1.378
48704W        W 1600  21.852  15.816   1.441
48705W        W 1601  30.898  10.436   8.401
48706W        W 1602   9.291  20.060   7.839
48707W        W 1603  26.352  19.449   7.800
48708W        W 1604   1.223   7.053   7.489
48709W        W 1605  13.141   5.063   2.405
48710W        W 1606  21.397   9.984   9.806
48711W        W 1607   4.936  27.959   1.731
48712W        W 1608   1.766  28.720  10.036
48713W        W 1609  12.051  32.459   8.805
48714W        W 1610  18.563  22.476   8.329
48715W        W 1611  31.966  32.245   9.739
48716W        W 1612  12.251  21.070   3.551
48717W        W 1613  25.975   6.375   7.931
48718W        W 1614  11.859  21.507   2.275
48719W        W 1615  33.979   0.510   9.588
48720W        W 1616  30.061   0.154   9.995
48721W        W 1617  26.442  15.310   3.194
48722W        W 1618   5.368  31.013   9.355
48723W        W 1619  20.300  26.033   0.719
48724W        W 1620  25.850   8.590   8.678
48725W        W 1621   6.969  17.502   2.169
48726W        W 1622  21.941  27.965   9.528
48727W        W 1623  30.067  35.649  10.080
48728W        W 1624  11.146  20.301   1.847
48729W        W 1625  23.268  18.656   7.762
48730W        W 1626   9.931  21.329   7.868
48731W        W 1627  11.675  23.664   0.773
48732W        W 1628  11.479   9.290   1.026
48733W        W 1629  22.814  10.914   8.958
48734W        W 1630   7.728  15.864  10.088
48735W        W 1631   7.196  18.414   0.948
48736W        W 1632  27.271   0.563   8.416
48737W        W 1633  21.982  35.821   1.940
48738W        W 1634   0.782  30.308   3.775
48739W        W 1635  18.328   2.228   9.244
48740W        W 1636  19.640  15.186   0.409
48741W        W 1637   2.848  25.318   9.879
48742W        W 1638  13.205  22.698   0.614
48743W        W 1639  13.241  16.134   1.461
48744W        W 1640  22.388  33.382   3.420
48745W        W 1641   1.214  35.564   0.201
48746W        W 1642  35.312  11.886   1.237
48747W        W 1643  27.293   0.095   8.777
48748W        W 1644  16.991  18.356   0.289
48749W        W 1645   6.287  19.270   0.074
48750W        W 1646  31.556  18.771   7.879
48751W        W 1647  31.066  34.665   9.929
48752W        W 1648  35.961  27.195   3.051
48753W        W 1649  25.432   7.654   8.319
48754W        W 1650   9.897   6.794   1.762
48755W        W 1651  34.405  33.912   7.744
48756W        W 1652   9.208  21.184   1.897
48757W        W 1653  34.282  14.413   9.961
48758W        W 1654   4.161  29.871   8.739
48759W        W 1655   2.662  29.493   1.221
48760W        W 1656  15.463  30.760   3.000
48761W        W 1657  13.262   4.589   2.607
48762W        W 1658  21.766   3.132   7.782
48763W        W 1659  31.374  24.468   1.203
48764W        W 1660  18.985  26.876   8.127
48765W        W 1661   8.509   4.734   1.694
48766W        W 1662  30.890  14.752   3.193
48767W        W 1663  18.747  22.728   8.755
48768W        W 1664   4.233   3.848   9.164
48769W        W 1665  32.394  11.861   2.461
48770W        W 1666  24.356  30.578   8.189
48771W        W 1667  16.599  13.475   6.940
48772W        W 1668  26.799  13.611   7.454
48773W        W 1669  28.934   9.020   3.057
48774W        W 1670  24.069  17.155   8.094
48775W        W 1671  23.620  15.007   8.771
48776W        W 1672  32.409   9.290   9.879
48777W        W 1673  24.995  26.559   0.286
48778W        W 1674  26.481  11.006   8.658
48779W        W 1675   6.587  29.598   3.699
48780W        W 1676   9.434  15.872   0.576
48781W        W 1677  29.017  32.648   0.194
48782W        W 1678   1.242   5.725   2.451
48783W        W 1679  10.423  13.291   8.024
48784W        W 1680  23.454  12.451   1.811
48785W        W 1681  35.341  14.449   9.789
48786W        W 1682   2.993  26.342   9.771
48787W        W 1683   4.740   8.807   9.990
48788W        W 1684  16.690  18.020   2.846
48789W        W 1685  31.557  26.278   9.211
48790W        W 1686  13.446  23.814   1.373
48791W        W 1687  32.016  22.024   9.430
48792W        W 1688  18.889  33.598   7.996
48793W        W 1689   3.763   3.634   8.238
48794W        W 1690  34.062  33.744  10.137
48795W        W 1691  20.704  29.934   1.268
48796W        W 1692   8.104   2.070   7.954
48797W        W 1693  32.131  32.910   8.007
48798W        W 1694  23.730  17.335   1.747
48799W        W 1695  13.369   5.808   2.967
48800W        W 1696  29.404   6.775   8.046
48801W        W 1697  12.162   2.608   8.938
48802W        W 1698   8.904  31.022   1.208
48803W        W 1699  32.578   9.103   2.385
48804W        W 1700  27.441  35.195   7.680
48805W        W 1701  18.351   3.648   0.835
48806W        W 1702  28.986  31.706   3.084
48807W        W 1703  19.256  32.646   9.038
48808W        W 1704  16.919   5.828   9.613
48809W        W 1705  24.391  29.974   2.243
48810W        W 1706  30.661  24.245   9.488
48811W        W 1707  25.846  11.134   7.423
48812W        W 1708  35.736   7.025   1.287
48813W        W 1709  17.481  32.238   0.103
48814W        W 1710   9.230  25.739   0.465
48815W        W 1711  31.811  29.653   2.292
48816W        W 1712   0.401  11.871   1.712
48817W        W 1713  33.957  25.422   1.033
48818W        W 1714   5.505  33.296   0.809
48819W        W 1715  24.740  25.285   2.152
48820W        W 1716  23.322  30.482   1.642
48821W        W 1717   4.370  26.233   9.055
48822W        W 1718  16.595  25.355   9.355
48823W        W 1719  33.029  28.111   9.034
48824W        W 1720  22.371  23.585   2.168
48825W        W 1721  14.031  22.629   9.768
48826W        W 1722  13.712  11.993  10.186
48827W        W 1723  32.661   3.461   3.070
48828W        W 1724   1.215  35.698   8.754
48829W        W 1725   7.896  24.232   6.863
48830W        W 1726  13.244   6.619   9.073
48831W        W 1727  32.409   3.026   7.481
48832W        W 1728  32.274   8.551   1.004
48833W        W 1729  16.879  23.353   0.317
48834W        W 1730  35.300  18.822   8.227
48835W        W 1731  14.377  20.634   2.713
48836W        W 1732   0.578  25.364   9.189
48837W        W 1733  35.305   6.100   9.289
48838W        W 1734  34.409  31.695   8.016
48839W        W 1735  20.168  23.077   8.326
48840W        W 1736   0.783  17.820   2.254
48841W        W 1737   2.726   1.180   1.666
48842W        W 1738   1.863   2.420   3.021
48843W        W 1739  12.762   1.095   3.128
48844W        W 1740   6.550  12.988   8.947
48845W        W 1741  32.632  17.239   9.697
48846W        W 1742  15.869   4.371  10.310
48847W        W 1743  16.483  23.077   8.225
48848W        W 1744  10.186  27.223   1.021
48849W        W 1745  15.219  32.059   2.427
48850W        W 1746   3.556  33.102   1.750
48851W        W 1747  34.813  35.051   9.203
48852W        W 1748  19.723   0.211   3.193
48853W        W 1749   6.170   3.812   0.993
48854W        W 1750  22.401  13.165   2.623
48855W        W 1751  13.021  29.130   1.164
48856W        W 1752   8.832   7.541   1.321
48857W        W 1753  34.994  18.581   1.552
48858W        W 1754  13.085  23.168   3.024
48859W        W 1755   2.375  14.575   9.815
48860W        W 1756  22.232   7.765   2.512
48861W        W 1757  31.301  22.561   1.690
48862W        W 1758  30.339  25.066   0.743
48863W        W 1759  22.422  12.149   1.503
48864W        W 1760  27.581   2.468   9.540
48865W        W 1761   1.789  26.259   3.390
48866W        W 1762  15.984  17.102   9.004
48867W        W 1763  17.416   9.482   0.165
48868W        W 1764  24.681   7.546   2.562
48869W        W 1765  32.789   2.463   0.942
48870W        W 1766   2.601  15.688   7.895
48871W        W 1767   6.216  10.993   3.420
48872W        W 1768  30.147   8.027   9.009
48873W        W 1769  24.137   7.044   0.966
48874W        W 1770  30.253  24.938   7.211
48875W        W 1771   1.731   6.939   7.697
48876W        W 1772   0.341  15.226   4.156
48877W        W 1773   0.662  22.427   0.014
48878W        W 1774  27.909   4.887   2.303
48879W        W 1775  26.415   4.738   1.340
48880W        W 1776  30.046   9.706   2.249
48881W        W 1777  15.865   9.401   1.566
48882W        W 1778   3.109   4.488   9.989
48883W        W 1779  18.133  22.846   2.804
48884W        W 1780   6.503  27.319   2.244
48885W        W 1781  14.884  12.905   9.720
48886W        W 1782  30.026  15.009   1.934
48887W        W 1783   2.353   8.342   2.681
48888W        W 1784   8.031   2.946   1.522
48889W        W 1785  29.893   5.283   2.422
48890W        W 1786  11.103   0.132   2.088
48891W        W 1787  30.449   8.107   7.586
48892W        W 1788  24.438  25.669   0.122
48893W        W 1789  34.662  30.218   9.561
48894W        W 1790  34.030  18.018   0.691
48895W        W 1791  30.295  28.983   2.628
48896W        W 1792   7.228  10.288  10.238
48897W        W 1793  16.773  11.091   7.611
48898W        W 1794   4.602  18.100   1.114
48899W        W 1795   4.247  34.716   0.261
48900W        W 1796   3.359  23.222   9.864
48901W        W 1797   7.782   8.244   8.682
48902W        W 1798   5.045  20.832   2.934
48903W        W 1799   5.262   2.103   2.151
48904W        W 1800  33.177  20.696   3.651
48905W        W 1801   9.692  35.562   9.004
48906W        W 1802   7.886  14.034   2.814
48907W        W 1803  19.106  13.588  10.195
48908W        W 1804  11.654   2.934   1.750
48909W        W 1805   5.056  22.432   9.708
48910W        W 1806  22.142   5.634   7.508
48911W        W 1807  34.664   8.530   7.582
48912W        W 1808   6.310  14.080   1.711
48913W        W 1809  15.800  24.694   0.469
48914W        W 1810  12.362  24.248   0.473
48915W        W 1811  29.641   2.702   1.346
48916W        W 1812  13.511  16.792   0.532
48917W        W 1813  26.180   8.281   8.384
48918W        W 1814  25.696  20.459   3.167
48919W        W 1815  25.927  17.644   9.963
48920W        W 1816   8.059  24.707   8.649
48921W        W 1817   9.435  29.769   0.300
48922W        W 1818   9.625  11.820   9.092
48923W        W 1819  34.163  16.389   1.191
48924W        W 1820  30.091  10.122   0.951
48925W        W 1821  13.209  12.793   8.396
48926W        W 1822  20.363   0.840   3.291
48927W        W 1823  10.592  11.837   2.630
48928W        W 1824  30.880   9.455   3.472
48929W        W 1825  32.443   0.878   2.897
48930W        W 1826  32.088   7.678   0.559
48931W        W 1827  14.980   4.886   1.496
48932W        W 1828  10.670  26.006   1.515
48933W        W 1829  17.578  10.870   9.224
48934W        W 1830  17.355   4.309   3.233
48935W        W 1831  20.834   9.591  10.056
48936W        W 1832   8.577   1.264   2.693
48937W        W 1833  19.732  35.270   2.377
48938W        W 1834   3.451  31.621   9.064
48939W        W 1835   7.048  26.896   1.693
48940W        W 1836  27.432  33.961   7.999
48941W        W 1837  32.020  15.991   1.398
48942W        W 1838  11.074  18.345   9.662
48943W        W 1839  23.416  26.442   3.539
48944W        W 1840  11.109  35.097  10.060
48945W        W 1841  17.009   8.108   8.589
48946W        W 1842  21.097   8.790   7.439
48947W        W 1843  19.043  12.500  10.048
48948W        W 1844   9.295  25.984   7.591
48949W        W 1845   1.260  18.838   8.681
48950W        W 1846  20.525  11.674   1.044
48951W        W 1847   7.195   1.799   2.245
48952W        W 1848  14.277  13.643   3.450
48953W        W 1849   9.293  32.905   2.873
48954W        W 1850   0.352  27.835   1.124
48955W        W 1851  18.896  25.665   8.056
48956W        W 1852   8.197   1.608   9.446
48957W        W 1853  22.648  23.652   1.367
48958W        W 1854  15.107  18.583   3.498
48959W        W 1855  34.764  19.309   1.693
48960W        W 1856  29.889   7.622   0.309
48961W        W 1857  33.894   0.388   1.122
48962W        W 1858   1.267  31.336   1.351
48963W        W 1859  11.574  23.152   0.715
48964W        W 1860  27.462   9.995   0.214
48965W        W 1861   7.252  15.399   9.918
48966W        W 1862  13.009  12.531   8.800
48967W        W 1863  30.937  12.419   9.569
48968W        W 1864  25.084  33.647   7.812
48969W        W 1865  35.157  33.684   9.098
48970W        W 1866  23.465  19.842   3.526
48971W        W 1867  26.299  17.773   9.054
48972W        W 1868  12.766   0.451   7.551
48973W        W 1869  31.273   2.760  10.069
48974W        W 1870  31.689   3.417   8.172
48975W        W 1871  14.463  32.144   8.033
48976W        W 1872  20.865  21.825   8.655
48977W        W 1873  20.144   0.942   0.555
48978W        W 1874  13.274  25.202   9.749
48979W        W 1875  15.341   4.219   0.916
48980W        W 1876   3.226  10.839   9.108
48981W        W 1877   2.157   0.881   0.829
48982W        W 1878  12.588  33.068   0.812
48983W        W 1879  21.165  30.478   1.561
48984W        W 1880   6.164  33.055   1.707
48985W        W 1881  17.872  29.803   9.408
48986W        W 1882  10.395  23.362   0.824
48987W        W 1883  14.251   8.888  10.070
48988W        W 1884  16.711  34.650   7.974
48989W        W 1885  15.738  13.390   7.566
48990W        W 1886   4.067  12.267   1.632
48991W        W 1887  34.539   8.863   0.294
48992W        W 1888  29.015  28.277  10.074
48993W        W 1889  21.854   4.803   9.038
48994W        W 1890  26.366  21.150   8.353
48995W        W 1891  32.754  14.164   2.624
48996W        W 1892  19.618  10.518   7.977
48997W        W 1893  35.521   0.596   7.753
48998W        W 1894   3.348  14.249   9.886
48999W        W 1895  19.443   8.409   0.985
49000W        W 1896   1.164   7.547   0.296
49001W        W 1897  11.239   7.045   8.018
49002W        W 1898  15.420   0.171   0.030
49003W        W 1899  24.574   2.813   2.179
49004W        W 1900  19.120  19.359   7.986
49005W        W 1901  30.018  35.463   2.131
49006W        W 1902   2.366   9.883   8.083
49007W        W 1903   6.410  15.825   9.351
49008W        W 1904  19.306  32.157   0.531
49009W        W 1905  25.413   0.086   1.493
49010W        W 1906  10.647  16.959   3.250
49011W        W 1907  27.727   0.703   2.265
49012W        W 1908  25.985  25.328   9.061
49013W        W 1909   3.010   8.139   1.068
49014W        W 1910  11.575  20.294   9.847
49015W        W 1911  20.948  17.519   7.578
49016W        W 1912  23.958  34.581   1.543
49017W        W 1913   7.211  27.574   8.551
49018W        W 1914  13.102  17.790   7.335
49019W        W 1915  27.964  29.199   9.512
49020W        W 1916  10.135   9.029   3.871
49021W        W 1917  18.745  20.744   1.347
49022W        W 1918  30.288  34.949   2.191
49023W        W 1919  28.861  23.455   7.782
49024W        W 1920  14.154  12.789   8.435
49025W        W 1921  17.345   4.149   9.212
49026W        W 1922  28.744  18.028   0.710
49027W        W 1923   3.283  30.545   1.427
49028W        W 1924  18.787  13.476   1.148
49029W        W 1925  31.099  11.337   1.018
49030W        W 1926  14.125  24.358   1.335
49031W        W 1927  19.538  11.539   3.497
49032W        W 1928  13.112   5.773   9.376
49033W        W 1929   9.065  19.861   1.765
49034W        W 1930  23.691  14.364   9.095
49035W        W 1931  33.897  30.818   9.321
49036W        W 1932  30.283   9.398   8.027
49037W        W 1933  13.481   0.655   9.195
49038W        W 1934  35.931   6.481   8.848
49039W        W 1935   3.599  27.188   9.614
49040W        W 1936  22.150  13.952   1.915
49041W        W 1937  27.283   2.185   0.064
49042W        W 1938  10.189  23.773   0.936
49043W        W 1939   4.060   7.341   1.925
49044W        W 1940  26.993   5.201   2.395
49045W        W 1941   8.965   9.246   0.576
49046W        W 1942  14.021   8.170   8.952
49047W        W 1943  23.366  17.742   3.105
49048W        W 1944  25.065  26.058   3.754
49049W        W 1945  21.536   6.971   8.055
49050W        W 1946  21.523  13.225   7.774
49051W        W 1947  18.439  13.630   0.444
49052W        W 1948  14.289   6.554   9.245
49053W        W 1949   4.807  29.562   0.346
49054W        W 1950  26.036   3.476   3.091
49055W        W 1951  23.410  30.195   1.042
49056W        W 1952  25.200  11.360   0.423
49057W        W 1953  19.014  25.451   2.019
49058W        W 1954   6.191   3.885   8.790
49059W        W 1955  30.484   4.821   1.963
49060W        W 1956  16.807  10.980   8.182
49061W        W 1957  31.257  31.915   7.648
49062W        W 1958   5.607  17.564   2.196
49063W        W 1959   6.941   5.221   3.123
49064W        W 1960  32.911   6.873   9.873
49065W        W 1961  11.720  11.065   8.853
49066W        W 1962   6.991  24.839   8.633
49067W        W 1963  15.408  30.258   2.794
49068W        W 1964   8.104  28.065   2.394
49069W        W 1965  13.550  32.442  10.135
49070W        W 1966  21.289  14.673   9.396
49071W        W 1967  30.203  13.203   2.049
49072W        W 1968  14.317   7.576   9.249
49073W        W 1969  11.705  19.813   7.369
49074W        W 1970   8.264  26.554   2.431
49075W        W 1971  12.707  26.181   7.694
49076W        W 1972  27.619  29.414   0.168
49077W        W 1973   9.310  27.014   1.577
49078W        W 1974  16.536  32.086  10.046
49079W        W 1975  26.625  21.084   7.903
49080W        W 1976  21.209  11.084   2.787
49081W        W 1977  17.559   3.439   8.124
49082W        W 1978   0.503  26.010  10.114
49083W        W 1979   6.961   8.703   7.678
49084W        W 1980   9.147  34.475   8.729
49085W        W 1981  22.633  25.859   1.925
49086W        W 1982  12.985  15.948   1.019
49087W        W 1983  32.837  16.605   0.013
49088W        W 1984  11.664  22.815  10.320
49089W        W 1985  31.814   1.109   0.749
49090W        W 1986   9.364  13.932   1.147
49091W        W 1987  27.802  32.826   9.849
49092W        W 1988  32.229  10.860   9.259
49093W        W 1989  22.047  10.967   0.404
49094W        W 1990  35.838   7.498   8.533
49095W        W 1991  32.160  10.839   7.166
49096W        W 1992  26.373   1.470   8.090
49097W        W 1993  20.353  10.058   2.761
49098W        W 1994  30.568   2.805   8.806
49099W        W 1995  15.797  29.847   1.953
49100W        W 1996  25.347   5.555   7.937
49101W        W 1997  11.999  19.813   2.972
49102W        W 1998   1.729  27.712   9.643
49103W        W 1999  28.188  19.909  10.157
49104W        W 2000   7.826   1.033   2.266
49105W        W 2001   4.638   3.517   8.514
49106W        W 2002  10.356  34.715   1.950
49107W        W 2003  25.451  20.370   9.666
49108W        W 2004  22.311  19.898   1.932
49109W        W 2005  16.641  19.129   8.625
49110W        W 2006   9.975  11.794   8.576
49111W        W 2007  14.897  16.571   2.834
49112W        W 2008  12.780  26.821   8.753
49113W        W 2009  34.314  20.004   0.225
49114W        W 2010  14.861   9.385  10.085
49115W        W 2011   2.862  31.603   0.655
49116W        W 2012  17.164  22.015   1.544
49117W        W 2013  22.733   5.843   7.780
49118W        W 2014  29.209  24.710   8.915
49119W        W 2015  27.089  20.912   2.959
49120W        W 2016  15.787   0.762   1.237
49121W        W 2017   4.589  18.087   2.006
49122W        W 2018  13.397  17.732   8.621
49123W        W 2019  32.023   5.766   0.563
49124W        W 2020  10.620  12.178   9.679
49125W        W 2021   6.917  19.677   2.738
49126W        W 2022  12.353  22.660   7.764
49127W        W 2023  17.526  30.956   3.618
49128W        W 2024  31.343  11.333   8.107
49129W        W 2025  22.416  28.548   8.874
49130W        W 2026  25.785   0.995   0.872
49131W        W 2027  18.136  35.891   1.263
49132W        W 2028   2.321  29.540   9.069
49133W        W 2029  28.682  25.149   1.722
49134W        W 2030  23.276   2.077   7.843
49135W        W 2031   1.804  22.014   0.942
49136W        W 2032   4.311  32.790   0.629
49137W        W 2033  18.237  31.335   3.118
49138W        W 2034  32.983   3.554   9.047
49139W        W 2035  26.020   3.199   8.637
49140W        W 2036  24.103  32.882   0.357
49141W        W 2037  20.693   6.678   8.505
49142W        W 2038   2.582  22.720   2.541
49143W        W 2039   0.087  13.470   2.008
49144W        W 2040  18.783   1.190   0.183
49145W        W 2041  14.784  29.458   9.490
49146W        W 2042  19.815  14.504   9.154
49147W        W 2043  19.832  13.372   0.365
49148W        W 2044  18.271  35.203   9.424
49149W        W 2045  28.932  31.694   0.823
49150W        W 2046   6.907  16.695   2.512
49151W        W 2047  20.344   6.697   7.555
49152W        W 2048  20.653  29.110   9.588
49153W        W 2049  26.426  20.432   2.488
49154W        W 2050   9.765   7.537   9.136
49155W        W 2051   6.367   7.116   1.156
49156W        W 2052  27.323  18.809   1.513
49157W        W 2053  26.495  14.745   2.206
49158W        W 2054   9.377  16.589   9.808
49159W        W 2055  11.825  26.890   7.599
49160W        W 2056  13.490  22.935   8.665
49161W        W 2057  11.039   8.669   2.119
49162W        W 2058  24.756   1.888   2.468
49163W        W 2059  11.188  24.678   0.341
49164W        W 2060  22.012  27.173   9.209
49165W        W 2061   0.240  20.498   2.934
49166W        W 2062   1.161   8.732   9.147
49167W        W 2063  20.725  34.988   3.020
49168W        W 2064  19.538  26.208   2.837
49169W        W 2065  19.077  29.087   0.032
49170W        W 2066  30.102  17.595   0.229
49171W        W 2067  22.260  30.140   3.337
49172W        W 2068  22.529  35.737   9.287
49173W        W 2069   0.836  11.920   2.636
49174W        W 2070  28.588  34.653   0.556
49175W        W 2071  21.015  29.959   0.461
49176W        W 2072   3.044   8.254   8.632
49177W        W 2073  22.660  19.638   1.661
49178W        W 2074  13.701  21.312   8.678
49179W        W 2075  16.054  35.323   8.645
49180W        W 2076  13.492  19.849   9.762
49181W        W 2077  31.935  14.388   0.102
49182W        W 2078   5.390  10.586   9.042
49183W        W 2079  20.836  19.986   1.249
49184W        W 2080  24.094   0.595   9.633
49185W        W 2081  23.206  16.416   0.924
49186W        W 2082  12.239  11.650   0.194
49187W        W 2083  12.174   6.981  10.109
49188W        W 2084  23.059  14.051   1.238
49189W        W 2085  30.394  27.193   0.023
49190W        W 2086  22.227  15.123  10.262
49191W        W 2087   4.657  25.390   3.181
49192W        W 2088  35.034  16.975   1.886
49193W        W 2089   6.203  22.375   9.339
49194W        W 2090  16.704   5.698   1.458
49195W        W 2091  10.474  30.818   7.949
49196W        W 2092   5.006   5.821   0.032
49197W        W 2093  27.807  35.706   3.046
49198W        W 2094   1.499   3.104   0.623
49199W        W 2095  26.470   7.440   7.489
49200W        W 2096   8.276  20.825   9.326
49201W        W 2097  28.184   2.995   1.911
49202W        W 2098   0.509  33.448   8.678
49203W        W 2099  28.465  26.861   9.872
49204W        W 2100  27.472  27.952   9.224
49205W        W 2101  19.946  18.808   2.545
49206W        W 2102   4.996  34.074   9.766
49207W        W 2103  29.882  22.479   7.891
49208W        W 2104   8.357  35.192   2.996
49209W        W 2105  26.412   5.115   7.635
49210W        W 2106  13.459  30.298   9.942
49211W        W 2107   2.140   0.933   2.272
49212W        W 2108  19.329  18.018   1.564
49213W        W 2109   7.439  31.832   1.327
49214W        W 2110  32.025  30.852   1.689
49215W        W 2111  17.592   8.092   1.564
49216W        W 2112  19.297  26.161   8.051
49217W        W 2113  11.081  19.402   3.203
49218W        W 2114  29.696  23.344   3.344
49219W        W 2115  21.089  11.674   3.535
49220W        W 2116   1.015  17.741   3.771
49221W        W 2117  14.156  21.110  10.158
49222W        W 2118  29.371  15.136   9.106
49223W        W 2119  22.096  10.627   1.674
49224W        W 2120  11.673  34.854   1.439
49225W        W 2121  27.001  33.048   2.602
49226W        W 2122  25.419  34.609   7.971
49227W        W 2123  31.945  31.842   0.398
49228W        W 2124  24.857  27.380   8.311
49229W        W 2125  24.635  16.943   8.417
49230W        W 2126  30.402  26.721   7.752
49231W        W 2127  17.264   7.104   1.109
49232W        W 2128  19.525  35.464   8.831
49233W        W 2129  35.488  18.498   2.769
49234W        W 2130   7.161  16.964   9.372
49235W        W 2131   9.591   5.380   0.504
49236W        W 2132   4.620  33.271   7.226
49237W        W 2133  11.823  34.828   0.924
49238W        W 2134  18.247   8.302   2.286
49239W        W 2135  17.567  31.608   7.655
49240W        W 2136  31.540  35.358   9.210
49241W        W 2137  22.619   4.853   3.304
49242W        W 2138   5.371  17.076   7.297
49243W        W 2139  13.790  29.436  10.293
49244W        W 2140  26.237  15.629   3.509
49245W        W 2141   3.407  23.779   0.983
49246W        W 2142   5.751   6.830   9.050
49247W        W 2143  22.038  25.321   2.290
49248W        W 2144  15.049   3.861   0.747
49249W        W 2145   5.081  32.506   8.541
49250W        W 2146  10.905  16.267   2.687
49251W        W 2147  18.335  33.024   1.049
49252W        W 2148  10.535  31.721  10.198
49253W        W 2149  33.059  18.009   8.828
49254W        W 2150  18.921   4.127   7.261
49255W        W 2151  33.599  24.358   2.739
49256W        W 2152   1.065  27.751   3.198
49257W        W 2153  11.701  19.264   0.347
49258W        W 2154  21.855  28.771   1.987
49259W        W 2155  25.713  12.956   0.036
49260W        W 2156   1.793  13.177   1.239
49261W        W 2157   4.177  18.459   1.109
49262W        W 2158  19.268   2.960   3.554
49263W        W 2159  27.215  16.852   9.178
49264W        W 2160  26.226  21.370   1.305
49265W        W 2161   9.523   3.235   9.660
49266W        W 2162  17.026   9.748   2.736
49267W        W 2163  30.784  27.611   7.908
49268W        W 2164  33.269  12.775   2.754
49269W        W 2165  29.547  13.964   9.389
49270W        W 2166  14.659  15.946   0.193
49271W        W 2167  23.297  32.794   3.407
49272W        W 2168  27.809   9.334   2.107
49273W        W 2169  22.483   4.811   2.093
49274W        W 2170   8.931  22.594   1.667
49275W        W 2171  11.141  12.912   3.198
49276W        W 2172  12.574   0.968   8.334
49277W        W 2173   8.466  15.949   9.157
49278W        W 2174  27.356  21.894   2.037
49279W        W 2175  29.653  12.385   2.794
49280W        W 2176  11.052  32.672   9.959
49281W        W 2177  29.332   1.479   8.853
49282W        W 2178  34.323  11.965   8.333
49283W        W 2179   1.877  24.114   3.763
49284W        W 2180  21.248  21.603   8.987
49285W        W 2181  23.934  24.216   7.552
49286W        W 2182  23.455  34.819   9.173
49287W        W 2183  18.150   5.880   8.247
49288W        W 2184  10.903  10.645   7.372
49289W        W 2185  17.339  14.531   1.327
49290W        W 2186  15.286  19.633   8.896
49291W        W 2187  22.603  18.300   9.155
49292W        W 2188  26.048  17.529   9.429
49293W        W 2189   2.580   6.147   0.654
49294W        W 2190  23.102  10.038   7.838
49295W        W 2191   8.577   2.865   0.063
49296W        W 2192  30.272  33.689   2.981
49297W        W 2193  22.285  20.354   2.141
49298W        W 2194  19.133  19.511   0.074
49299W        W 2195  34.917  23.534   9.314
49300W        W 2196  26.733  21.387   8.773
49301W        W 2197  10.252  29.674  10.035
49302W        W 2198  20.991  35.968   2.286
49303W        W 2199  23.662   6.668   3.133
49304W        W 2200  23.133  26.337  10.132
49305W        W 2201  28.607   7.592   2.715
49306W        W 2202  13.314  29.444  10.068
49307W        W 2203  32.692   6.506   8.886
49308W        W 2204  17.858  15.066   0.635
49309W        W 2205  30.233  34.619   1.841
49310W        W 2206  26.537  26.496   8.479
49311W        W 2207  20.862  20.186   1.912
49312W        W 2208   0.369  34.081   3.309
49313W        W 2209  31.390  35.190   8.699
49314W        W 2210  11.935  19.573   2.063
49315W        W 2211  34.489  20.533   9.079
49316W        W 2212  19.659   0.109   2.682
49317W        W 2213   8.247  12.527   9.213
49318W        W 2214   9.615  28.268   8.314
49319W        W 2215  23.917  13.096   9.867
49320W        W 2216  34.733  22.497   8.663
49321W        W 2217  18.528  28.061   0.111
49322W        W 2218  27.887  13.418  10.067
49323W        W 2219  12.872  13.496   0.554
49324W        W 2220  20.964  26.563   0.953
49325W        W 2221   2.358  15.137   9.307
49326W        W 2222   7.477  15.721   8.405
49327W        W 2223   3.717   4.428   7.123
49328W        W 2224  24.899  21.936   0.576
49329W        W 2225  14.115   1.471   8.945
49330W        W 2226   7.589  24.491   0.617
49331W        W 2227   9.327  24.979   9.391
49332W        W 2228   8.810  23.140   8.192
49333W        W 2229  19.418  18.796   2.472
49334W        W 2230  30.110  22.026   0.974
49335W        W 2231  31.272  19.076   3.014
49336W        W 2232  21.633  23.744   2.621
49337W        W 2233   6.611   2.136   0.486
49338W        W 2234   1.443  16.754   2.258
49339W        W 2235  28.921   0.558   9.621
49340W        W 2236  24.391  33.250   7.946
49341W        W 2237  28.566  21.116   7.886
49342W        W 2238   8.966  10.625   8.999
49343W        W 2239   4.779  16.684   9.263
49344W        W 2240   6.166   9.697   0.240
49345W        W 2241  32.221  17.273   3.309
49346W        W 2242  34.881  22.386   3.990
49347W        W 2243   3.890   4.086   8.875
49348W        W 2244  22.870  13.245   2.560
49349W        W 2245  14.976  20.933   2.254
49350W        W 2246  11.801  23.843   1.646
49351W        W 2247   5.883  15.063   9.385
49352W        W 2248  11.230  31.433   9.487
49353W        W 2249  14.477   7.248   8.131
49354W        W 2250  10.298  19.119   7.150
49355W        W 2251  27.480  14.357   9.199
49356W        W 2252  31.518   8.794   2.320
49357W        W 2253  27.015   1.301   0.566
49358W        W 2254  26.201   1.348   9.708
49359W        W 2255  21.958  14.744   2.760
49360W        W 2256   3.048   3.202   2.015
49361W        W 2257  23.286   6.848   9.674
49362W        W 2258  10.836  17.390   9.737
49363W        W 2259   7.769  23.546   2.416
49364W        W 2260   7.618  14.495   2.493
49365W        W 2261  13.837  35.389   3.550
49366W        W 2262   7.958  16.726   0.963
49367W        W 2263  31.678   8.474   8.678
49368W        W 2264   3.096  13.000  10.294
49369W        W 2265  12.234  20.205   8.012
49370W        W 2266  29.375  11.875   8.802
49371W        W 2267   0.399   3.386   9.651
49372W        W 2268  15.652  19.820   9.275
49373W        W 2269   1.592   1.384  10.032
49374W        W 2270  26.519  24.029   8.525
49375W        W 2271   7.689  32.330   8.066
49376W        W 2272  29.949  24.515   1.806
49377W        W 2273  20.739  18.446   0.030
49378W        W 2274  34.302  17.746   8.619
49379W        W 2275  30.771   5.433   1.218
49380W        W 2276  34.233  12.765   1.500
49381W        W 2277  31.206  24.899   8.369
49382W        W 2278   2.550  12.669   7.410
49383W        W 2279  11.745  30.379   1.852
49384W        W 2280  20.910  26.406   3.607
49385W        W 2281  28.267  35.545   7.141
49386W        W 2282   2.778  29.901   8.168
49387W        W 2283  16.236  27.886   8.859
49388W        W 2284  29.134  32.548   1.194
49389W        W 2285  15.987  25.618   0.655
49390W        W 2286   3.366   4.640   2.144
49391W        W 2287   6.220   7.742   8.979
49392W        W 2288   7.077   3.513   0.705
49393W        W 2289  19.757  26.569   2.311
49394W        W 2290  30.026   5.062   8.777
49395W        W 2291   2.397  33.362   1.604
49396W        W 2292   0.363  19.574   2.763
49397W        W 2293   3.548  26.435   1.845
49398W        W 2294   2.035   5.804   3.211
49399W        W 2295  17.883  24.614   2.434
49400W        W 2296   6.195  30.672   8.546
49401W        W 2297   5.975  20.554   9.997
49402W        W 2298   2.856   8.890   3.144
49403W        W 2299   5.076   1.561   8.163
49404W        W 2300  14.906   1.586   8.620
49405W        W 2301  22.939  35.611   8.886
49406W        W 2302  10.116  14.902   1.163
49407W        W 2303   7.466  15.857   9.563
49408W        W 2304  32.383   9.410   7.729
49409W        W 2305   4.575  23.484   9.910
49410W        W 2306   6.594   3.137   0.965
49411W        W 2307  27.236  26.136   9.189
49412W        W 2308  26.904  16.914   0.068
49413W        W 2309  34.002  20.560   9.011
49414W        W 2310  16.591   9.567   7.973
49415W        W 2311  29.160  25.949   1.192
49416W        W 2312  16.075  33.211   1.033
49417W        W 2313   2.643   3.726   0.383
49418W        W 2314  15.286  21.067   0.731
49419W        W 2315   4.469  29.129   0.257
49420W        W 2316  13.508  14.120   2.330
49421W        W 2317  32.014   6.106  10.194
49422W        W 2318  33.864  34.950   0.298
49423W        W 2319  29.622   2.346   2.863
49424W        W 2320   8.452   2.424   8.015
49425W        W 2321  10.559  16.989   1.945
49426W        W 2322  20.046   9.096   7.713
49427W        W 2323  33.162   6.516   0.200
49428W        W 2324  20.177  23.243   1.703
49429W        W 2325   3.999  20.930  10.134
49430W        W 2326  28.707  16.873   2.615
49431W        W 2327  33.273  20.158   9.942
49432W        W 2328  15.383  13.745   7.414
49433W        W 2329  26.231  10.136   9.273
49434W        W 2330  10.951  34.033   9.365
49435W        W 2331  35.205  12.992   8.114
49436W        W 2332  29.716   9.812  10.221
49437W        W 2333  20.465  33.632   1.134
49438W        W 2334  11.611   7.747   0.574
49439W        W 2335  21.747  23.625   1.661
49440W        W 2336   8.802  35.341   3.254
49441W        W 2337  12.425  16.700   1.518
49442W        W 2338  21.705  34.186   2.594
49443W        W 2339  33.241  33.062   7.895
49444W        W 2340  19.513  12.909   9.923
49445W        W 2341  12.840  29.349   9.743
49446W        W 2342  33.786   7.763   2.466
49447W        W 2343  28.945  10.102   9.451
49448W        W 2344  11.396  14.579   7.582
49449W        W 2345  19.964  19.309   0.842
49450W        W 2346  18.068   2.084   8.794
49451W        W 2347  11.257  25.844   8.925
49452W        W 2348  33.075  24.159   1.134
49453W        W 2349  12.437  20.688   2.692
49454W        W 2350  34.147  35.016   2.239
49455W        W 2351  14.601  19.460   7.827
49456W        W 2352   2.913   3.874   7.549
49457W        W 2353   6.281  22.849   7.411
49458W        W 2354  17.088  26.129   9.114
49459W        W 2355  19.834  17.481   2.624
49460W        W 2356  18.302   4.740  10.153
49461W        W 2357  30.200   6.160   9.666
49462W        W 2358  12.731  26.106   1.841
49463W        W 2359  17.266  21.762   3.467
49464W        W 2360   0.235  31.150   1.237
49465W        W 2361  24.944  23.449   2.433
49466W        W 2362  26.134  25.425   1.747
49467W        W 2363  32.470  26.863   9.446
49468W        W 2364   5.602  19.699   1.707
49469W        W 2365   5.314  11.262   3.682
49470W        W 2366   1.081  28.983   9.491
49471W        W 2367   8.122  18.211   8.544
49472W        W 2368  10.468   0.412   1.755
49473W        W 2369   8.113   1.165   2.683
49474W        W 2370  33.747  31.037   0.979
49475W        W 2371   6.717  26.038   3.168
49476W        W 2372   3.934  21.906  10.182
49477W        W 2373  20.680  19.279   0.337
49478W        W 2374  20.519  18.758   2.228
49479W        W 2375  25.708   7.711   2.347
49480W        W 2376   8.639   3.614   1.695
49481W        W 2377   8.022  29.787   7.891
49482W        W 2378  28.399  14.772   1.184
49483W        W 2379  35.405  35.376   8.016
49484W        W 2380  30.164  30.362   9.755
49485W        W 2381  32.681  18.425   2.671
49486W        W 2382   4.153   5.403   2.679
49487W        W 2383  15.936  16.198   3.584
49488W        W 2384  28.922  12.599   3.246
49489W        W 2385  27.091  11.524   1.610
49490W        W 2386  27.642  16.275  10.152
49491W        W 2387  10.788  12.626   3.647
49492W        W 2388   7.913   1.729   1.433
49493W        W 2389   2.796   9.428   9.686
49494W        W 2390  17.962  13.772   0.430
49495W        W 2391  28.319  14.607   9.050
49496W        W 2392  20.998   4.016   9.648
49497W        W 2393   9.903  12.285   8.359
49498W        W 2394  27.831  27.526   9.171
49499W        W 2395  30.573  12.104   8.103
49500W        W 2396  17.295  33.579   0.298
49501W        W 2397  13.719   0.422   2.504
49502W        W 2398  15.968  20.658   0.346
49503W        W 2399   4.213  21.889   3.265
49504W        W 2400  21.962  27.416   0.126
49505W        W 2401   4.783   3.179   9.539
49506W        W 2402  16.108   0.525  10.238
49507W        W 2403  15.837  18.280   1.932
49508W        W 2404  21.271   3.250   8.043
49509W        W 2405  18.502  33.729   2.589
49510W        W 2406  34.372  27.535   0.404
49511W        W 2407  17.216  30.763   7.136
49512W        W 2408   2.665  25.730   2.059
49513W        W 2409   6.359  19.125   9.931
49514W        W 2410  19.833   8.144   3.700
49515W        W 2411  30.030  25.025   8.676
49516W        W 2412  28.097  15.630   0.811
49517W        W 2413  16.740  14.506   1.878
49518W        W 2414  13.212   4.113   3.226
49519W        W 2415  20.506   1.778   8.002
49520W        W 2416  23.480   1.175   9.489
49521W        W 2417   1.123  25.210   8.454
49522W        W 2418  23.997  26.246  10.043
49523W        W 2419  16.041   9.565   7.870
49524W        W 2420  25.839   0.868   2.188
49525W        W 2421  35.866   6.336   9.318
49526W        W 2422   3.936  11.192   9.631
49527W        W 2423  25.068  13.324   8.077
49528W        W 2424  11.535  12.035   0.672
49529W        W 2425   8.666  11.991   7.975
49530W        W 2426   2.652  25.907   9.849
49531W        W 2427   5.460   0.633   1.237
49532W        W 2428   8.445  24.530   0.943
49533W        W 2429  30.562  11.052   0.197
49534W        W 2430  17.778  18.223   8.443
49535W        W 2431  23.263  21.471   3.059
49536W        W 2432  28.515  13.238   2.778
49537W        W 2433  28.391  10.362   1.483
49538W        W 2434  27.108  14.520   9.476
49539W        W 2435   6.994  30.171   0.613
49540W        W 2436  12.584  30.877   7.958
49541W        W 2437  16.515   5.175   2.743
49542W        W 2438  11.864  19.359   7.560
49543W        W 2439   4.499  26.725   9.293
49544W        W 2440  18.066  23.916   8.958
49545W        W 2441  19.385   5.432   8.852
49546W        W 2442   5.958   8.693   8.930
49547W        W 2443   3.749   1.725   1.746
49548W        W 2444   3.995  20.264   9.520
49549W        W 2445  29.932   7.157   7.947
49550W        W 2446  19.842  22.841   4.059
49551W        W 2447   3.367   3.325   0.297
49552W        W 2448   4.626   4.450   8.444
49553W        W 2449  19.163  22.193   8.791
49554W        W 2450  35.926  19.807   9.261
49555W        W 2451   3.575   0.533   0.272
49556W        W 2452  34.014  28.891   9.166
49557W        W 2453  27.041   7.427   2.199
49558W        W 2454  31.320  19.132   0.959
49559W        W 2455  32.108  18.462   9.633
49560W        W 2456  35.953  29.049   0.691
49561W        W 2457   8.650   6.122   0.680
49562W        W 2458  19.004  13.375   3.699
49563W        W 2459   6.544  16.372   2.908
49564W        W 2460  23.628  32.772   3.768
49565W        W 2461   5.567   8.866   2.206
49566W        W 2462  28.422  10.060   9.749
49567W        W 2463  33.394   2.367   9.958
49568W        W 2464  31.597  17.853   0.838
49569W        W 2465  35.583   8.799   7.455
49570W        W 2466   2.356  25.481   9.722
49571W        W 2467   3.512   1.711   2.229
49572W        W 2468   9.960   2.495   8.453
49573W        W 2469   3.067  24.877   0.458
49574W        W 2470   7.160  18.760   1.490
49575W        W 2471   2.139  27.052   3.479
49576W        W 2472   7.707   2.831   9.839
49577W        W 2473  31.596  26.345   3.066
49578W        W 2474  19.920  26.407   7.697
49579W        W 2475  23.958  11.860   7.790
49580W        W 2476  25.534   6.647   8.376
49581W        W 2477  17.326  24.489   0.656
49582W        W 2478   4.122   8.414   3.321
49583W        W 2479  23.823  12.081  10.331
49584W        W 2480  15.532  28.429   8.889
49585W        W 2481  30.893  19.904   1.231
49586W        W 2482  20.397  28.675   9.532
49587W        W 2483  26.240  17.597   7.924
49588W        W 2484   9.863  12.565   2.809
49589W        W 2485  25.265   3.839   8.024
49590W        W 2486   7.402   4.974   7.821
49591W        W 2487  13.863   5.175   8.452
49592W        W 2488  26.597  18.394   1.925
49593W        W 2489   5.067  21.644   3.780
49594W        W 2490   0.971   8.784   2.813
49595W        W 2491  32.466  14.978   2.169
49596W        W 2492  32.911  21.168   0.312
49597W        W 2493  29.938  33.872   9.782
49598W        W 2494  31.565  35.803   2.734
49599W        W 2495  28.506  28.319   8.191
49600W        W 2496  17.219  15.438  10.214
49601W        W 2497  22.466  23.391   7.736
49602W        W 2498  30.973  12.005   2.851
49603W        W 2499  16.707  31.505   8.852
49604W        W 2500  14.548  16.391   8.214
49605W        W 2501   3.556  24.484   3.966
49606W        W 2502  30.393   7.457   1.632
49607W        W 2503   5.762  35.782   0.194
49608W        W 2504  23.534  13.981   2.184
49609W        W 2505   6.874  33.753   1.280
49610W        W 2506  14.829  16.889   8.299
49611W        W 2507  21.760  33.811   0.919
49612W        W 2508  21.193  24.702   2.687
49613W        W 2509   6.050  34.066   7.120
49614W        W 2510  24.574   7.687   1.234
49615W        W 2511  25.265  11.980   1.875
49616W        W 2512  18.456  20.990   0.075
49617W        W 2513   1.861   4.599   7.573
49618W        W 2514  21.392  12.476   2.245
49619W        W 2515  14.443   8.123  10.163
49620W        W 2516  19.192  20.782   3.101
49621W        W 2517  16.891  24.083   7.516
49622W        W 2518  32.493  27.868  10.138
49623W        W 2519   5.882   5.705   9.843
49624W        W 2520  15.704   4.410   3.637
49625W        W 2521  21.026   6.141   8.880
49626W        W 2522  17.653  16.419   1.695
49627W        W 2523  29.088  30.047   0.952
49628W        W 2524  13.033  15.325   1.836
49629W        W 2525  30.152   5.899  10.229
49630W        W 2526  33.836  33.387   8.821
49631W        W 2527  15.824  35.672   9.170
49632W        W 2528  34.156  10.056   6.928
49633W        W 2529  35.522  15.658   8.155
49634W        W 2530  16.087  18.593   0.364
49635W        W 2531  14.582   5.802   8.293
49636W        W 2532   3.005  32.893   9.335
49637W        W 2533  34.149  16.264   3.476
49638W        W 2534  25.617  28.689   1.791
49639W        W 2535   8.250  15.652   9.591
49640W        W 2536  14.570  33.728   1.132
49641W        W 2537  13.221   5.319   9.719
49642W        W 2538  32.083  30.289   1.144
49643W        W 2539  15.130  21.490   8.895
49644W        W 2540   0.976  28.958   9.005
49645W        W 2541  14.221  15.568   0.389
49646W        W 2542   7.616  29.456   7.805
49647W        W 2543  27.842   1.300   0.059
49648W        W 2544   7.760   4.126   0.990
49649W        W 2545  13.119  18.747   8.254
49650W        W 2546  16.932  23.457   2.139
49651W        W 2547  12.573   1.171   9.886
49652W        W 2548  12.089  28.292   8.248
49653W        W 2549  14.112   1.538   0.715
49654W        W 2550  23.978  28.741   7.628
49655W        W 2551  32.686  24.896   3.347
49656W        W 2552  26.023   3.784   9.273
49657W        W 2553  12.207  30.049   8.569
49658W        W 2554  29.497  35.977   2.649
49659W        W 2555  29.203  22.064   7.403
49660W        W 2556  10.572  33.204   8.211
49661W        W 2557  29.570  14.587   3.259
49662W        W 2558  29.205  18.187   6.954
49663W        W 2559  30.165   1.615   2.466
49664W        W 2560  21.199  11.687   1.850
49665W        W 2561  14.175  35.190   8.617
49666W        W 2562  30.256  35.678   0.778
49667W        W 2563  14.158   0.083   9.511
49668W        W 2564  11.566  12.278   3.502
49669W        W 2565  15.697  23.462   8.700
49670W        W 2566  13.514  30.505   0.068
49671W        W 2567   9.657  19.279  10.228
49672W        W 2568  15.183  10.206   8.653
49673W        W 2569   4.071   2.435   3.007
49674W        W 2570  13.698   7.408   9.314
49675W        W 2571  11.679  17.188   9.186
49676W        W 2572  14.749   6.973   0.651
49677W        W 2573  14.873  11.614   2.582
49678W        W 2574  24.343   2.009   1.985
49679W        W 2575  26.461   0.572   0.296
49680W        W 2576  16.860  35.799   0.992
49681W        W 2577  34.001  35.401   8.749
49682W        W 2578  29.467  15.736  10.004
49683W        W 2579  29.549   2.606   0.050
49684W        W 2580  15.162  27.618   0.282
49685W        W 2581  27.253  24.023   9.180
49686W        W 2582  31.337  21.559   2.814
49687W        W 2583  32.683  13.224   1.030
49688W        W 2584  15.873  16.830   1.942
49689W        W 2585   0.474  30.204   7.728
49690W        W 2586  26.969  27.171   2.217
49691W        W 2587  29.509  23.060   0.392
49692W        W 2588  30.246   0.061   1.520
49693W        W 2589  15.630  25.604   8.234
49694W        W 2590   1.464  16.422   1.780
49695W        W 2591   8.424  16.848   1.038
49696W        W 2592   9.492  33.739   2.566
49697W        W 2593   4.189  19.895   1.677
49698W        W 2594  28.327  35.567   8.734
49699W        W 2595  20.373  25.767   2.694
49700W        W 2596   7.264  27.661   9.048
49701W        W 2597  29.408   9.488   2.376
49702W        W 2598  30.481  16.867   9.956
49703W        W 2599  11.782  21.433   0.234
49704W        W 2600  11.576  11.420  10.040
49705W        W 2601  33.615   6.568   8.207
49706W        W 2602   2.433  29.505   2.299
49707W        W 2603  29.811  21.650   9.154
49708W        W 2604  30.677  35.917   2.984
49709W        W 2605   1.533   1.940   9.547
49710W        W 2606  33.957   1.671   7.325
49711W        W 2607   2.801  35.706   2.075
49712W        W 2608  24.078  24.658  10.017
49713W        W 2609  13.913  21.255   9.757
49714W        W 2610  31.349   1.064   1.153
49715W        W 2611  33.155  29.419   3.300
49716W        W 2612  26.543  35.784   0.087
49717W        W 2613  16.723  17.583   2.578
49718W        W 2614   3.520  13.131   9.041
49719W        W 2615  16.046   3.918   0.108
49720W        W 2616   0.254  15.042   0.270
49721W        W 2617  30.767  32.133   2.894
49722W        W 2618  24.641   3.845   9.762
49723W        W 2619  28.215  11.196   2.016
49724W        W 2620  10.371   3.552   1.710
49725W        W 2621  22.200  15.576   2.654
49726W        W 2622   8.438   3.767   9.940
49727W        W 2623  24.460   6.134   1.438
49728W        W 2624  19.295  10.761   8.635
49729W        W 2625  13.027  19.849   7.996
49730W        W 2626  25.341   8.250   0.467
49731W        W 2627   6.229   3.425   0.705
49732W        W 2628  17.300  35.081   8.225
49733W        W 2629  14.334  21.533   2.824
49734W        W 2630  29.740  12.318   8.142
49735W        W 2631   4.526  17.461   9.664
49736W        W 2632  22.812  14.238   7.956
49737W        W 2633  35.417  16.773   3.269
49738W        W 2634  29.879  34.462   0.227
49739W        W 2635  23.147   5.045   9.906
49740W        W 2636   3.900  24.456   3.054
49741W        W 2637  21.822  22.201  10.017
49742W        W 2638  14.027  34.683   1.117
49743W        W 2639  29.489  28.155   1.066
49744W        W 2640  24.706   0.649   9.065
49745W        W 2641  28.882  25.792   0.064
49746W        W 2642  20.465   6.042   9.237
49747W        W 2643  34.174   1.742   1.362
49748W        W 2644  32.677  29.643   3.267
49749W        W 2645   9.579  20.601   8.799
49750W        W 2646  14.091  32.936   3.044
49751W        W 2647   1.813  24.673   1.421
49752W        W 2648   8.195  11.761   8.034
49753W        W 2649  33.005  26.724   9.603
49754W        W 2650   4.706   6.396   7.760
49755W        W 2651   6.410   7.125  10.278
49756W        W 2652   4.697   6.078   3.645
49757W        W 2653   8.495   3.410   0.910
49758W        W 2654   3.608  14.045   9.399
49759W        W 2655  26.418  10.441   0.646
49760W        W 2656  19.789  15.245   1.344
49761W        W 2657  34.110   9.727   0.341
49762W        W 2658  26.384  31.075   9.956
49763W        W 2659  27.420   9.541   2.318
49764W        W 2660  30.154  20.664   2.406
49765W        W 2661  21.471  15.653   8.095
49766W        W 2662  15.069  32.077   1.627
49767W        W 2663  20.974  22.419   8.410
49768W        W 2664  29.974  24.706   0.453
49769W        W 2665  11.307  19.611   2.196
49770W        W 2666   6.917   5.616   1.852
49771W        W 2667   1.682  18.774   9.002
49772W        W 2668  10.052  10.625   0.362
49773W        W 2669   2.474   8.706   1.829
49774W        W 2670   2.274   7.235   2.217
49775W        W 2671   1.276   2.771   8.831
49776W        W 2672   2.313  27.918   8.127
49777W        W 2673  24.472   7.065   3.193
49778W        W 2674  13.534  18.183   1.509
49779W        W 2675   5.574  18.036   8.230
49780W        W 2676  13.806  17.221   9.333
49781W        W 2677  29.583   6.906   2.125
49782W        W 2678  22.204  16.024   2.211
49783W        W 2679  32.502  19.453   0.389
49784W        W 2680  12.613  28.853   2.349
49785W        W 2681  16.315  24.622   8.124
49786W        W 2682   9.476  17.192   2.739
49787W        W 2683  19.767  19.438  10.306
49788W        W 2684   6.654  19.603   7.469
49789W        W 2685  26.859  33.141   9.054
49790W        W 2686   3.843   4.720   8.153
49791W        W 2687   9.701   4.442   8.006
49792W        W 2688  28.675  14.050   7.638
49793W        W 2689  17.952  17.556   0.535
49794W        W 2690  30.501  34.262   7.813
49795W        W 2691  15.284   3.653   2.637
49796W        W 2692   4.048  25.615   1.717
49797W        W 2693  31.492  10.319   8.196
49798W        W 2694  20.770  12.326   9.377
49799W        W 2695  15.740   1.762   7.313
49800W        W 2696  24.415  14.324   0.821
49801W        W 2697  24.338  25.630   8.191
49802W        W 2698  13.236   2.089   0.844
49803W        W 2699  27.944   1.508   1.528
49804W        W 2700  11.429  21.478   7.704
49805W        W 2701   0.414  30.880  10.186
49806W        W 2702  17.270   2.137   0.640
49807W        W 2703   2.773  27.175  10.191
49808W        W 2704  11.111   8.739   8.501
49809W        W 2705   6.237  30.854   0.652
49810W        W 2706  35.960  25.352   3.864
49811W        W 2707  17.966  32.102   0.175
49812W        W 2708  14.481  28.439   1.073
49813W        W 2709  17.912   0.071   8.271
49814W        W 2710  23.071  14.837   8.495
49815W        W 2711  33.480   7.375   7.142
49816W        W 2712   2.700  24.082   7.356
49817W        W 2713  30.906   9.378   2.033
49818W        W 2714  28.853  17.624   8.919
49819W        W 2715  17.567  21.250   3.404
49820W        W 2716   0.357  17.854   2.633
49821W        W 2717   0.205  15.225   9.745
49822W        W 2718  22.263  30.682   8.420
49823W        W 2719   5.463  17.534   9.070
49824W        W 2720   9.807  31.124   2.733
49825W        W 2721  29.002  11.858   0.802
49826W        W 2722  32.066   1.540   3.289
49827W        W 2723  10.804   6.041   8.206
49828W        W 2724   1.280  29.319   8.930
49829W        W 2725   5.335  13.750   9.380
49830W        W 2726  11.070  19.445   9.813
49831W        W 2727  12.117  13.766   8.405
49832W        W 2728  26.774   4.164   2.612
49833W        W 2729  32.258   7.430   1.958
49834W        W 2730  19.456  30.332   1.381
49835W        W 2731   5.991  26.200   1.542
49836W        W 2732  34.613   4.554   2.440
49837W        W 2733  14.985  24.936   8.259
49838W        W 2734   2.099  23.664   9.327
49839W        W 2735  13.022  16.185   3.221
49840W        W 2736  12.174  14.534   7.678
49841W        W 2737  11.376  13.620   1.674
49842W        W 2738  25.091  10.045   1.115
49843W        W 2739  30.738  35.935   8.715
49844W        W 2740  22.873  11.649   2.301
49845W        W 2741   4.543   1.882   1.169
49846W        W 2742  15.725  22.139   3.743
49847W        W 2743   6.802  35.864   1.130
49848W        W 2744  30.418  10.509   1.144
49849W        W 2745  23.775   1.566   9.867
49850W        W 2746  16.927  24.100   0.982
49851W        W 2747  34.241  22.475   3.851
49852W        W 2748  25.125  33.806   0.182
49853W        W 2749  24.269  29.861   0.055
49854W        W 2750  12.620  25.172   2.168
49855W        W 2751   2.438  17.427   8.537
49856W        W 2752  16.270  22.309   0.115
49857W        W 2753   0.695   8.809   7.836
49858W        W 2754  16.371  33.428   3.250
49859W        W 2755  25.408  26.775   8.001
49860W        W 2756  28.528  30.974   7.809
49861W        W 2757  19.567  19.260   4.042
49862W        W 2758  35.548  13.532   1.055
49863W        W 2759   6.257  20.809   9.644
49864W        W 2760  12.617   1.137   1.814
49865W        W 2761   1.520  29.589   0.947
49866W        W 2762   2.222  31.192   0.433
49867W        W 2763  33.932  25.842  10.268
49868W        W 2764  30.701  20.344   8.564
49869W        W 2765  25.829   8.314   9.153
49870W        W 2766  28.006  15.390   2.209
49871W        W 2767  27.002  13.221   7.685
49872W        W 2768  17.577  19.085   2.839
49873W        W 2769  19.089  31.038   2.746
49874W        W 2770  26.310  30.360   1.707
49875W        W 2771  31.666  29.191   1.483
49876W        W 2772  23.450  21.240   2.481
49877W        W 2773  13.294  17.277   1.847
49878W        W 2774  34.548  34.245   7.394
49879W        W 2775  15.257  23.382   1.538
49880W        W 2776  16.391  10.259   2.774
49881W        W 2777  23.171   8.382   0.748
49882W        W 2778  34.396  31.481   3.829
49883W        W 2779  11.242  21.144   9.428
49884W        W 2780  22.601  11.223   8.629
49885W        W 2781  29.549  26.925   0.418
49886W        W 2782  18.915  30.935   0.929
49887W        W 2783  22.434  24.248   0.651
49888W        W 2784  17.515  17.334   0.230
49889W        W 2785  19.021  11.141   8.609
49890W        W 2786  11.685  21.100   2.209
49891W        W 2787  26.768   7.805   7.847
49892W        W 2788   7.904  18.004   1.361
49893W        W 2789  31.803   6.733   8.863
49894W        W 2790   8.673  13.480   3.004
49895W        W 2791   7.134  29.930   8.362
49896W        W 2792   5.828  11.453   9.580
49897W        W 2793  14.617  24.323   1.952
49898W        W 2794  26.058  13.488   9.091
49899W        W 2795  18.628   4.946   9.817
49900W        W 2796   6.349   3.829   8.182
49901W        W 2797  30.385  24.413   0.519
49902W        W 2798  14.739   0.500   7.316
49903W        W 2799   2.026  28.672   2.071
49904W        W 2800  19.513   8.882   1.091
49905W        W 2801  28.255  28.641   8.456
49906W        W 2802  19.097  25.395   1.348
49907W        W 2803   0.288  15.865   1.583
49908W        W 2804   2.934  20.141   1.157
49909W        W 2805   9.113  33.287   7.972
49910W        W 2806  14.918  19.471   2.385
49911W        W 2807   1.242  20.825   0.637
49912W        W 2808   8.580  22.907   7.811
49913W        W 2809  21.700   3.593   0.546
49914W        W 2810   7.614   9.508   9.716
49915W        W 2811  27.647  10.155   1.064
49916W        W 2812  28.221  24.163   8.123
49917W        W 2813  30.771   9.487   0.502
49918W        W 2814  31.988  24.465   9.877
49919W        W 2815  16.129  28.626   7.910
49920W        W 2816  23.368  28.915   1.179
49921W        W 2817  30.873  33.996   7.992
49922W        W 2818   2.377   8.100   0.483
49923W        W 2819   0.858  26.543   1.522
49924W        W 2820   4.954  33.209   0.065
49925W        W 2821   2.278  11.575   3.342
49926W        W 2822   8.478  28.895   2.509
49927W        W 2823  28.854  29.550   7.714
49928W        W 2824  23.826  16.701   9.887
49929W        W 2825  11.863  18.489   1.146
49930W        W 2826  24.522  10.860   1.783
49931W        W 2827   6.278  19.293   1.328
49932W        W 2828   8.613   1.491   0.886
49933W        W 2829  29.520  10.716   0.887
49934W        W 2830  24.894  29.074   1.045
49935W        W 2831  22.154  16.138  10.029
49936W        W 2832   2.309  24.035   9.971
49937W        W 2833  20.343  16.343   1.340
49938W        W 2834   9.320   1.294   1.980
49939W        W 2835  11.212  33.355   2.996
49940W        W 2836   6.728  24.383   2.523
49941W        W 2837   8.552  30.452   2.932
49942W        W 2838  33.160  28.614   8.739
49943W        W 2839  15.442   4.083   0.424
49944W        W 2840   7.830   0.436   9.961
49945W        W 2841   0.745  25.988   8.670
49946W        W 2842  24.636  18.882   8.956
49947W        W 2843  27.757   3.644   2.602
49948W        W 2844   6.940  19.736   7.836
49949W        W 2845   0.554  33.894   8.319
49950W        W 2846   9.928   3.673   2.012
49951W        W 2847  21.783   5.081   0.215
49952W        W 2848   5.524   5.159   9.323
49953W        W 2849  34.819  23.858   1.533
49954W        W 2850  12.403  35.878   1.840
49955W        W 2851  33.766  33.275   3.133
49956W        W 2852  32.401  19.041   1.178
49957W        W 2853   1.234   3.985   0.304
49958W        W 2854   5.762  16.368   8.377
49959W        W 2855  32.023  27.935   9.997
49960W        W 2856  33.673   8.742   1.337
49961W        W 2857   4.395   2.487   8.384
49962W        W 2858  26.337   5.054   0.426
49963W        W 2859  28.643  13.440   1.121
49964W        W 2860  19.919  29.375  10.104
49965W        W 2861  32.205  32.304   0.506
49966W        W 2862   3.189  17.173   0.795
49967W        W 2863   7.663  22.516   0.989
49968W        W 2864  18.183   5.037   1.811
49969W        W 2865   1.141   9.881   0.458
49970W        W 2866   7.104  25.542   7.314
49971W        W 2867   3.286  23.022   0.554
49972W        W 2868  19.121  14.174   8.435
49973W        W 2869  24.407  18.974   0.534
49974W        W 2870  19.677  30.368   9.591
49975W        W 2871  34.883  27.180   8.077
49976W        W 2872  26.925   1.715   2.293
49977W        W 2873  34.805  23.821   3.099
49978W        W 2874  27.145  28.312   1.870
49979W        W 2875  24.562   6.964   9.963
49980W        W 2876  31.977  17.241   8.578
49981W        W 2877  20.672  31.759   9.688
49982W        W 2878   2.037   1.947   2.469
49983W        W 2879  16.549  20.011   0.928
49984W        W 2880  22.335  22.457   8.008
49985W        W 2881   8.790  26.847   8.224
49986W        W 2882  18.778   5.691   3.543
49987W        W 2883   3.169  15.200   3.513
49988W        W 2884  16.059  18.429   8.946
49989W        W 2885  19.806  27.000   3.162
49990W        W 2886   0.132  13.311   3.700
49991W        W 2887  19.455   1.275   1.679
49992W        W 2888  22.960  22.469   2.107
49993W        W 2889  25.750  23.495   0.840
49994W        W 2890  19.515  29.180   1.357
49995W        W 2891   5.648  29.981   0.313
49996W        W 2892  29.644  20.269   3.141
49997W        W 2893  20.966  25.193   8.912
49998W        W 2894  17.617  34.078   9.472
49999W        W 2895   8.071  30.710   9.553
50000W        W 2896  25.910  12.421   0.268
50001W        W 2897  23.145   1.147   2.306
50002W        W 2898   3.984  11.924   0.330
50003W        W 2899  15.781   6.181   8.448
50004W        W 2900  17.508  27.523   8.953
50005W        W 2901  25.111   1.645   8.257
50006W        W 2902  35.459   2.334  10.257
50007W        W 2903  14.347  30.886   1.216
50008W        W 2904  29.298  17.678   9.126
50009W        W 2905  21.286  11.626   0.236
50010W        W 2906  31.214  26.942   0.391
50011W        W 2907  18.705   2.734   3.021
50012W        W 2908  27.433  29.135   1.561
50013W        W 2909  11.089   3.257   2.336
50014W        W 2910  17.533  10.844   0.136
50015W        W 2911  13.943   2.911   9.134
50016W        W 2912  14.732  11.650   1.137
50017W        W 2913  12.553  24.924   8.120
50018W        W 2914  23.636  11.244   1.181
50019W        W 2915  18.745   7.105   1.262
50020W        W 2916  10.172  26.211   9.602
50021W        W 2917  22.652   2.331   8.965
50022W        W 2918  22.078  22.910   9.094
50023W        W 2919   6.240   2.746   1.581
50024W        W 2920  23.739  26.279   2.798
50025W        W 2921  22.594  24.836   2.141
50026W        W 2922  25.721  28.872   9.553
50027W        W 2923  16.552   1.285   9.629
50028W        W 2924   8.060  18.134   9.515
50029W        W 2925  16.188  26.192   2.361
50030W        W 2926   2.236  18.893   0.086
50031W        W 2927  27.780  28.652   8.253
50032W        W 2928   9.489   3.463   1.954
50033W        W 2929  19.867   0.240   0.719
50034W        W 2930   9.746  18.312   7.901
50035W        W 2931  19.982   7.289   9.573
50036W        W 2932   8.317  18.202   0.154
50037W        W 2933  19.863   1.130   2.052
50038W        W 2934  33.912  31.005   1.525
50039W        W 2935   7.619   1.243   8.259
50040W        W 2936  21.001  35.986   3.216
50041W        W 2937  15.434  35.080   2.860
50042W        W 2938  27.256  18.160   7.305
50043W        W 2939  35.850   0.607   8.266
50044W        W 2940  31.389   6.493   2.033
50045W        W 2941   7.449  14.286   8.981
50046W        W 2942  18.113  13.274   8.263
50047W        W 2943   0.977  25.918   3.099
50048W        W 2944  25.034  12.262   2.212
50049W        W 2945   3.129   7.665  10.162
50050W        W 2946  18.988   6.845   9.696
50051W        W 2947  14.010  11.299   9.560
50052W        W 2948   1.722  18.400   0.855
50053W        W 2949  21.308  35.968   0.237
50054W        W 2950   5.786  19.019   7.511
50055W        W 2951  15.025  35.394   9.293
50056W        W 2952  26.992   1.126   2.635
50057W        W 2953  32.939  29.057   0.768
50058W        W 2954   2.089  26.436  10.012
50059W        W 2955  29.267   5.622   1.294
50060W        W 2956  16.592  20.089   9.976
50061W        W 2957  21.092   5.443   3.229
50062W        W 2958  26.622   7.506   8.744
50063W        W 2959   7.793  20.415   0.560
50064W        W 2960  14.530  31.943   0.618
50065W        W 2961  12.060  20.359   2.690
50066W        W 2962  22.334  16.688   9.398
50067W        W 2963  18.711   3.371   1.042
50068W        W 2964  32.505   6.767   7.136
50069W        W 2965   6.628   5.454   1.457
50070W        W 2966  11.420  17.036   2.354
50071W        W 2967  22.146   6.293   9.830
50072W        W 2968  25.206  24.219   9.779
50073W        W 2969   5.824   4.966   8.906
50074W        W 2970  11.241  21.176   9.924
50075W        W 2971  14.198  26.182   8.633
50076W        W 2972  12.850  22.139   1.892
50077W        W 2973  32.100   7.215   8.870
50078W        W 2974   0.278  10.530   3.270
50079W        W 2975  30.614  18.690   0.189
50080W        W 2976   3.634  24.819   7.202
50081W        W 2977  22.092  34.773   1.336
50082W        W 2978  29.575  28.205   0.217
50083W        W 2979  10.411   5.152   0.325
50084W        W 2980  34.774   8.362   2.099
50085W        W 2981  26.001  22.305   9.114
50086W        W 2982   3.905  30.859   0.697
50087W        W 2983   4.044  28.968   3.155
50088W        W 2984   1.915  24.000   8.348
50089W        W 2985  24.289   6.446   9.386
50090W        W 2986  11.343  33.034   0.197
50091W        W 2987  25.860  16.539  10.107
50092W        W 2988   9.776  27.457   1.958
50093W        W 2989  18.881  29.528   0.098
50094W        W 2990  28.989  14.114   2.664
50095W        W 2991  23.049  11.096   1.827
50096W        W 2992  21.349  32.805   0.309
50097W        W 2993  28.282  13.799   1.233
50098W        W 2994  11.101  19.949   3.350
50099W        W 2995   0.333  12.329   9.491
50100W        W 2996   8.506   5.849   8.106
50101W        W 2997  20.759  10.586   9.333
50102W        W 2998  33.355  35.700   7.486
50103W        W 2999  30.035   1.797   2.003
50104W        W 3000  10.060  20.127   2.635
50105W        W 3001   7.209  24.895   9.782
50106W        W 3002  13.394  22.441   8.713
50107W        W 3003   0.908  28.919   1.229
50108W        W 3004  19.775   7.656   0.019
50109W        W 3005  16.933  13.005   7.724
50110W        W 3006  11.943  32.676   2.253
50111W        W 3007  23.599  16.593   2.461
50112W        W 3008  16.899  10.766   8.683
50113W        W 3009   6.725  19.460   0.233
50114W        W 3010   5.125  27.775  10.080
50115W        W 3011  16.620   5.711   2.717
50116W        W 3012  18.906   3.086   9.124
50117W        W 3013  22.443  35.814   8.657
50118W        W 3014  10.918  17.660   0.172
50119W        W 3015  21.756   2.191   3.472
50120W        W 3016  18.029  26.776   1.415
50121W        W 3017  20.102  26.381   9.620
50122W        W 3018  35.070  34.296   1.142
50123W        W 3019  12.366  34.168   9.292
50124W        W 3020  12.065   7.580   8.931
50125W        W 3021  18.741  26.745   0.581
50126W        W 3022   1.269  21.202  10.119
50127W        W 3023  19.241   3.213   0.986
50128W        W 3024  20.792  24.068   1.856
50129W        W 3025  26.347  13.012   0.886
50130W        W 3026   5.425  20.014   7.679
50131W        W 3027  25.901  21.365   8.198
50132W        W 3028  19.688   7.144   0.158
50133W        W 3029   4.449  16.805   8.843
50134W        W 3030  34.783   7.855   2.106
50135W        W 3031  12.268  15.940   7.562
50136W        W 3032   6.863   4.874   2.596
50137W        W 3033  13.901   0.979   8.015
50138W        W 3034  14.330  10.000   7.975
50139W        W 3035  19.944  12.812   0.497
50140W        W 3036  18.034   5.865   2.958
50141W        W 3037  18.654  14.926   1.836
50142W        W 3038  33.904   1.414   9.004
50143W        W 3039  31.496  34.700   1.565
50144W        W 3040  13.865   7.273   0.751
50145W        W 3041   7.240  18.725   9.092
50146W        W 3042  24.069  30.959   8.008
50147W        W 3043  21.939  18.546   9.310
50148W        W 3044   9.129   7.830  10.035
50149W        W 3045  20.434  23.567   9.246
50150W        W 3046  12.313  12.103  10.061
50151W        W 3047  21.211  16.878   2.283
50152W        W 3048   7.839   5.234   7.066
50153W        W 3049  19.437  18.485   0.296
50154W        W 3050  30.649   4.653   1.530
50155W        W 3051   7.997  22.574   1.376
50156W        W 3052  20.922  28.843   2.326
50157W        W 3053   1.174   5.854   1.131
50158W        W 3054  16.564  12.498   7.924
50159W        W 3055  27.599  10.721   3.080
50160W        W 3056  10.403  12.045   8.627
50161W        W 3057  17.390  28.413   8.490
50162W        W 3058  10.245  23.094   8.042
50163W        W 3059  13.918   2.886   2.231
50164W        W 3060  24.689   4.147   0.087
50165W        W 3061   0.817   5.240   1.825
50166W        W 3062  31.504  16.051   0.616
50167W        W 3063  29.430   1.893   8.440
50168W        W 3064  30.743   8.494   1.828
50169W        W 3065  10.069  25.898   8.773
50170W        W 3066  24.324   8.702  10.219
50171W        W 3067  32.716  35.948   7.571
50172W        W 3068  22.808  16.883   4.110
50173W        W 3069  17.974   4.200   8.695
50174W        W 3070   4.475   8.990   1.580
50175W        W 3071  13.583  17.057   0.961
50176W        W 3072  19.305  31.887   7.795
50177W        W 3073  27.240  19.078   0.029
50178W        W 3074  20.011  23.534   8.917
50179W        W 3075  27.430  33.629   1.097
50180W        W 3076   5.428  12.546   0.603
50181W        W 3077  26.303  27.481   1.599
50182W        W 3078  13.614  25.653   1.752
50183W        W 3079   7.562  34.688   2.659
50184W        W 3080  21.598  18.676   1.547
50185W        W 3081  35.629  22.818   0.408
50186W        W 3082  21.681  16.826   9.608
50187W        W 3083  32.035   1.051   9.057
50188W        W 3084  30.748   3.744   8.087
50189W        W 3085   6.631  17.798   0.750
50190W        W 3086  12.464   7.364  10.330
50191W        W 3087  34.897  14.100   0.768
50192W        W 3088   3.711  30.270   8.060
50193W        W 3089  18.607   0.489   2.981
50194W        W 3090  22.795   6.665   3.364
50195W        W 3091   8.720  16.145   8.719
50196W        W 3092  34.059  29.806   1.378
50197W        W 3093  17.549  28.782   0.713
50198W        W 3094   6.854   9.522   0.505
50199W        W 3095   5.148   0.396   9.635
50200W        W 3096  27.345   2.593   3.849
50201W        W 3097  28.418   2.151  10.078
50202W        W 3098  27.019   2.171   1.651
50203W        W 3099  17.988   2.598   2.400
50204W        W 3100  22.046  20.557   1.765
50205W        W 3101   2.077  22.724   9.213
50206W        W 3102  15.344  15.203   2.830
50207W        W 3103  14.510  31.819   3.768
50208W        W 3104   7.059  23.746   1.738
50209W        W 3105  29.442   0.413   8.172
50210W        W 3106  26.969  25.050   2.385
50211W        W 3107  28.169  30.614   9.292
50212W        W 3108   3.137   8.594   3.584
50213W        W 3109  21.577  32.849   7.378
50214W        W 3110  23.021   6.404   9.903
50215W        W 3111   7.244  23.723   7.178
50216W        W 3112  35.354   4.664   2.056
50217W        W 3113   3.963  11.416   2.415
50218W        W 3114   3.659  22.234   1.642
50219W        W 3115   6.135  25.500   9.273
50220W        W 3116  28.480  11.420   9.679
50221W        W 3117   1.489   9.077   8.988
50222W        W 3118  20.851  27.234   7.938
50223W        W 3119  15.270   5.918   8.752
50224W        W 3120  10.435  35.285   2.067
50225W        W 3121  20.325  32.889   9.678
50226W        W 3122   4.611   8.291   8.844
50227W        W 3123  22.247  33.131   0.702
50228W        W 3124  25.458  10.017   8.753
50229W        W 3125  11.386  24.286   9.097
50230W        W 3126  10.217  16.532   8.188
50231W        W 3127  14.381  19.890   3.232
50232W        W 3128  13.963  22.609   8.030
50233W        W 3129  22.817  35.972   9.633
50234W        W 3130  26.227  27.446   0.065
50235W        W 3131  16.663  26.285   9.228
50236W        W 3132  19.633  17.043   1.298
50237W        W 3133  11.805  27.709   1.030
50238W        W 3134  17.675  11.832   1.948
50239W        W 3135  32.106  16.299   2.460
50240W        W 3136   3.997  14.266   8.652
50241W        W 3137   4.592   7.526   8.469
50242W        W 3138  14.305   2.194   7.970
50243W        W 3139  18.595  18.936   9.544
50244W        W 3140  12.728  33.088   3.233
50245W        W 3141  12.087  29.541   2.543
50246W        W 3142  32.109   1.255   0.102
50247W        W 3143   7.465  34.819   1.341
50248W        W 3144  22.713  21.720   1.075
50249W        W 3145   3.882   8.433   9.439
50250W        W 3146  30.148  33.516   1.139
50251W        W 3147  20.747  35.022   1.393
50252W        W 3148  33.161  35.748   0.364
50253W        W 3149  20.363  16.272   3.072
50254W        W 3150   5.474  24.864   9.945
50255W        W 3151  24.394  16.099   0.122
50256W        W 3152   1.367  12.498   2.439
50257W        W 3153  26.966   1.315   1.589
50258W        W 3154  14.682  29.589   0.066
50259W        W 3155  21.183  31.162   9.659
50260W        W 3156  10.737   3.178   8.218
50261W        W 3157  16.021   1.656   0.593
50262W        W 3158  12.180  27.909   7.929
50263W        W 3159   4.694  20.365   3.729
50264W        W 3160  24.033  31.162   0.665
50265W        W 3161  17.320  11.954   9.412
50266W        W 3162  31.554   5.824   1.483
50267W        W 3163  32.463  20.103   1.515
50268W        W 3164  28.202   4.864   9.872
50269W        W 3165  34.133  20.967   0.206
50270W        W 3166  16.051  32.698   0.280
50271W        W 3167  19.397  34.494   8.816
50272W        W 3168  14.613   9.275   9.630
50273W        W 3169  15.777  20.941   0.865
50274W        W 3170  24.688  20.032   9.704
50275W        W 3171  30.811  16.660   9.683
50276W        W 3172   4.437  25.246   0.998
50277W        W 3173  15.141  14.197   2.823
50278W        W 3174  24.165   4.327   0.979
50279W        W 3175  13.114  13.474   1.413
50280W        W 3176  28.848   2.122   1.073
50281W        W 3177  11.207   6.456   2.123
50282W        W 3178  27.636  25.944   2.394
50283W        W 3179  15.724  16.110   9.886
50284W        W 3180  19.628  33.259   1.581
50285W        W 3181   9.045  30.576   2.877
50286W        W 3182  35.144  34.305   2.754
50287W        W 3183   7.080   0.320   8.849
50288W        W 3184  17.596  34.545  10.187
50289W        W 3185   7.496  25.597  10.216
50290W        W 3186  26.534  12.353   9.423
50291W        W 3187   9.441  27.712   2.305
50292W        W 3188  18.682   3.341   0.069
50293W        W 3189  14.875   1.506   2.479
50294W        W 3190  34.690   5.676   1.555
50295W        W 3191  16.097  24.777   0.037
50296W        W 3192   3.245  29.034   9.761
50297W        W 3193   7.680  20.647   1.914
50298W        W 3194  23.861  24.574   1.000
50299W        W 3195  18.240  11.046   1.675
50300W        W 3196  20.216   0.035   3.301
50301W        W 3197  33.581   6.562   2.471
50302W        W 3198   8.783  32.575   2.054
50303W        W 3199   8.222  34.672   7.185
50304W        W 3200   1.663  10.773   3.821
50305W        W 3201  36.002  32.248   2.941
50306W        W 3202   1.644   0.757   9.306
50307W        W 3203  32.814  10.088   2.692
50308W        W 3204  30.148  11.208   9.344
50309W        W 3205  15.535  29.775   3.604
50310W        W 3206  35.302   3.190   1.641
50311W        W 3207   6.307  14.899   9.477
50312W        W 3208  17.290  26.585   0.236
50313W        W 3209   0.493  27.201   8.966
50314W        W 3210   9.834  29.054   0.553
50315W        W 3211  18.507  29.209   2.752
50316W        W 3212   9.999  26.096   1.508
50317W        W 3213   1.835  15.897   8.457
50318W        W 3214  35.475  32.967   0.219
50319W        W 3215   8.720  25.641   0.468
50320W        W 3216  25.988  21.114   9.864
50321W        W 3217  33.299  10.083   7.122
50322W        W 3218   9.882   8.237   1.100
50323W        W 3219  32.159  30.449   9.943
50324W        W 3220  17.995  28.720   9.361
50325W        W 3221  16.352  22.730   0.460
50326W        W 3222  18.655  19.259   0.557
50327W        W 3223   2.502  31.484   3.633
50328W        W 3224  10.525  28.039   7.769
50329W        W 3225  10.107  25.281   0.675
50330W        W 3226   9.354  20.286   9.819
50331W        W 3227  25.810  30.846   0.286
50332W        W 3228   4.038  30.295   2.632
50333W        W 3229  34.555  21.414   3.216
50334W        W 3230  18.211  11.298   3.352
50335W        W 3231  21.446   2.805   9.164
50336W        W 3232  20.606  33.172   1.031
50337W        W 3233  17.749  31.980  10.047
50338W        W 3234  13.643  33.050   1.706
50339W        W 3235  14.492  23.888   0.375
50340W        W 3236  12.452   5.538   3.258
50341W        W 3237   9.012   3.509   9.733
50342W        W 3238  26.442  32.678   2.414
50343W        W 3239  13.938   0.431   9.247
50344W        W 3240  16.902  16.100   9.245
50345W        W 3241   4.979   3.686   9.499
50346W        W 3242  31.770   2.607   9.668
50347W        W 3243  26.751  11.318   0.316
50348W        W 3244   1.806   9.453   1.774
50349W        W 3245  14.348   7.900   2.747
50350W        W 3246  14.519   5.112   9.188
50351W        W 3247   2.200  25.126   2.245
50352W        W 3248  24.308  29.267   8.755
50353W        W 3249  34.695   0.510   1.875
50354W        W 3250  20.460   9.241   8.722
50355W        W 3251  29.016  23.484   1.213
50356W        W 3252   1.612  12.815   2.784
50357W        W 3253  16.649  14.512   7.960
50358W        W 3254  34.557  25.924   2.566
50359W        W 3255  22.545  33.564   9.224
50360W        W 3256   5.425  10.262   2.534
50361W        W 3257  20.719   5.208   1.359
50362W        W 3258  32.779   1.057   0.592
50363W        W 3259  34.754  10.251   0.676
50364W        W 3260  15.533  29.020   0.847
50365W        W 3261  13.521  19.193   2.142
50366W        W 3262   0.193   5.773   1.157
50367W        W 3263   3.652   4.391   0.557
50368W        W 3264  20.563  33.303   0.184
50369W        W 3265   4.170  35.735   2.675
50370W        W 3266   2.831  31.275   1.403
50371W        W 3267   1.495  21.310   8.261
50372W        W 3268  13.422  27.911   9.759
50373W        W 3269   4.148  19.501   9.340
50374W        W 3270  31.603  24.018   9.122
50375W        W 3271  13.259  21.355   1.728
50376W        W 3272   0.514  13.977   3.255
50377W        W 3273  20.690  27.510   2.551
50378W        W 3274  21.392   7.014   8.804
50379W        W 3275   8.735   5.079   1.257
50380W        W 3276  16.309   5.076   8.299
50381W        W 3277   0.694   3.690   8.670
50382W        W 3278   8.011  14.837   0.598
50383W        W 3279  30.179  24.944   2.006
50384W        W 3280   4.241  19.061   9.116
50385W        W 3281   9.580  27.317   8.347
50386W        W 3282  16.660  14.093   8.222
50387W        W 3283  13.277  22.892   2.080
50388W        W 3284  14.168  11.015  10.050
50389W        W 3285  16.079   4.915   0.775
50390W        W 3286  13.120  17.678   2.200
50391W        W 3287  28.828  20.661   2.735
50392W        W 3288  31.332  14.736   8.823
50393W        W 3289  21.775  13.441   8.255
50394W        W 3290   8.611  10.194   1.063
50395W        W 3291  30.503   7.702   2.270
50396W        W 3292  13.166  14.510   2.476
50397W        W 3293  21.599  34.668   1.126
50398W        W 3294  14.989  17.977   0.651
50399W        W 3295  26.122  23.604   3.054
50400W        W 3296  18.381   0.737   7.548
50401W        W 3297  29.695  22.309   7.346
50402W        W 3298  27.353  28.634   1.507
50403W        W 3299  32.614  22.429   0.382
50404W        W 3300  34.484  18.560   1.399
50405W        W 3301  33.222  21.752   8.292
50406W        W 3302   9.074   7.380   1.720
50407W        W 3303  32.559   7.746   0.499
50408W        W 3304  13.833  25.223   0.140
50409W        W 3305  21.826  13.028   2.884
50410W        W 3306  32.055  12.997   9.631
50411W        W 3307  29.246  34.779   0.279
50412W        W 3308   4.515   8.765   2.825
50413W        W 3309  31.100   8.346   3.373
50414W        W 3310  34.778  17.998   2.185
50415W        W 3311   1.318  30.956   8.756
50416W        W 3312  19.450  26.128   0.584
50417W        W 3313  17.026  33.110   1.135
50418W        W 3314  28.104  21.416   8.821
50419W        W 3315  26.046  27.650   8.846
50420W        W 3316  17.689   6.474   2.434
50421W        W 3317  28.596  24.404   9.527
50422W        W 3318  16.698  21.376   7.615
50423W        W 3319  11.817  14.389   0.182
50424W        W 3320  22.667  26.760   9.478
50425W        W 3321  34.822  18.105   0.221
50426W        W 3322   5.780   9.359   0.161
50427W        W 3323  33.667  18.065   2.851
50428W        W 3324  14.645  25.631   8.266
50429W        W 3325  29.622   1.635  10.191
50430W        W 3326  25.097  11.313   1.138
50431W        W 3327  30.727   8.051  10.249
50432W        W 3328  11.951  20.970   0.118
50433W        W 3329  30.084  12.020   7.934
50434W        W 3330  25.125  14.000   1.251
50435W        W 3331   8.509  10.677   0.084
50436W        W 3332   9.265  10.444  10.051
50437W        W 3333  13.261  20.441   1.671
50438W        W 3334  24.352   9.292   2.305
50439W        W 3335  12.229  10.452   0.605
50440W        W 3336   8.824  25.245   8.120
50441W        W 3337  27.254  26.569   8.840
50442W        W 3338  29.614   3.644   2.147
50443W        W 3339  25.640   3.989   0.478
50444W        W 3340   5.211  15.840   9.480
50445W        W 3341  24.418   8.383   7.843
50446W        W 3342  31.013  34.630   2.460
50447W        W 3343  19.217   9.701   9.000
50448W        W 3344  10.775  34.930   1.323
50449W        W 3345  35.573  25.012   0.037
50450W        W 3346  32.055  11.658   0.118
50451W        W 3347  28.008   9.883   2.589
50452W        W 3348   0.173   6.821   8.142
50453W        W 3349  13.889   4.966   1.087
50454W        W 3350  13.663   4.679  10.085
50455W        W 3351  30.769  15.120   2.858
50456W        W 3352  31.952   3.341   9.351
50457W        W 3353  32.275  12.862   7.394
50458W        W 3354   8.954  34.166   8.302
50459W        W 3355  21.772   7.263   8.412
50460W        W 3356  34.070  21.583   8.727
50461W        W 3357   4.990  25.026   8.551
50462W        W 3358  25.580   8.760   9.127
50463W        W 3359  24.405   6.936   9.479
50464W        W 3360  13.722  26.513   1.676
50465W        W 3361  34.417   6.796   9.047
50466W        W 3362  14.784  15.662   9.669
50467W        W 3363  31.097  32.656   1.561
50468W        W 3364  23.872  32.494   2.164
50469W        W 3365  18.870  14.787   9.319
50470W        W 3366  33.132   6.135  10.107
50471W        W 3367   6.555  22.520   0.945
50472W        W 3368  16.941   9.788   2.243
50473W        W 3369  19.842   2.414   6.592
50474W        W 3370  31.611  10.305   1.006
50475W        W 3371  32.155  33.542   9.981
50476W        W 3372  25.564   9.216   8.969
50477W        W 3373   7.981  26.946   6.859
50478W        W 3374   0.540  11.062   0.981
50479W        W 3375  34.409   2.443   8.312
50480W        W 3376   0.347  33.066   2.845
50481W        W 3377  15.485  18.438   2.703
50482W        W 3378   4.014  24.541   0.791
50483W        W 3379   9.656  30.312   0.366
50484W        W 3380  28.925   4.203   1.450
50485W        W 3381   5.012   7.738   8.313
50486W        W 3382  21.275   2.629   0.439
50487W        W 3383   9.805   9.883   2.470
50488W        W 3384   0.513   5.238   7.609
50489W        W 3385  10.759  34.526   1.005
50490W        W 3386  33.182  35.543   8.451
50491W        W 3387  14.988   7.181   2.489
50492W        W 3388  18.413  25.591   3.675
50493W        W 3389  25.391  29.651   6.882
50494W        W 3390   5.071  31.658   1.383
50495W        W 3391  20.440  30.068   1.674
50496W        W 3392  33.723   1.343   7.867
50497W        W 3393  27.814   8.289   9.159
50498W        W 3394   0.069  28.941   9.389
50499W        W 3395  31.103  14.186   9.415
50500W        W 3396   6.117   2.445   2.434
50501W        W 3397   1.781  11.327  10.269
50502W        W 3398  35.871  23.637  10.232
50503W        W 3399  20.040  12.682   3.099
50504W        W 3400   3.104  16.715   9.435
50505W        W 3401   1.731   8.274   2.408
50506W        W 3402  12.693  25.557   9.497
50507W        W 3403  24.906  10.943   3.354
50508W        W 3404  19.521  24.173   0.753
50509W        W 3405  15.614  34.381  10.107
50510W        W 3406  22.175  35.544   8.973
50511W        W 3407   0.264   9.816   8.571
50512W        W 3408  22.597  16.434   1.367
50513W        W 3409   0.641  14.494   2.920
50514W        W 3410   9.285  18.974   1.621
50515W        W 3411  33.522   4.974   1.864
50516W        W 3412  27.472   7.705   8.328
50517W        W 3413  33.073  19.173   2.894
50518W        W 3414  21.895   0.967   9.579
50519W        W 3415  10.939  14.425   1.684
50520W        W 3416  20.585  32.428   3.628
50521W        W 3417  17.182   7.549   3.342
50522W        W 3418   7.851  14.087   2.239
50523W        W 3419  34.672  32.051   3.319
50524W        W 3420   8.038  26.797   0.556
50525W        W 3421  34.184   6.705   2.284
50526W        W 3422   4.896  30.050   2.531
50527W        W 3423  21.139  20.498   9.851
50528W        W 3424  25.535  25.350   0.582
50529W        W 3425  11.357   0.062   9.238
50530W        W 3426  31.118  27.658  10.231
50531W        W 3427   8.628  14.302   9.403
50532W        W 3428   2.949  12.997   1.635
50533W        W 3429  33.797  21.647  10.201
50534W        W 3430  10.707   4.294   9.700
50535W        W 3431   7.040  28.244   3.284
50536W        W 3432  25.716   0.646   9.891
50537W        W 3433  34.648  12.291   8.634
50538W        W 3434  32.283  19.402   3.446
50539W        W 3435  19.357  22.910   2.067
50540W        W 3436   3.507   3.614  10.255
50541W        W 3437   0.032   0.611   1.175
50542W        W 3438   2.917  21.617  10.202
50543W        W 3439  15.278  34.341   7.749
50544W        W 3440  19.712  27.633   7.759
50545W        W 3441  24.895  14.054   2.910
50546W        W 3442  16.699  31.031   2.031
50547W        W 3443   3.161   9.154   2.862
50548W        W 3444  13.903  17.932  10.073
50549W        W 3445   0.364  31.831   0.238
50550W        W 3446  12.021   7.956   8.597
50551W        W 3447   8.689  17.390   9.155
50552W        W 3448  28.887  29.577   0.789
50553W        W 3449   1.954  18.166   7.650
50554W        W 3450  18.639  17.813   2.074
50555W        W 3451  34.265   1.366   9.921
50556W        W 3452  23.388   6.689  10.188
50557W        W 3453  10.665  12.025   2.091
50558W        W 3454  18.168  11.867   8.538
50559W        W 3455  23.400   1.239   1.894
50560W        W 3456  35.723  20.544   9.589
50561W        W 3457  12.168  27.544   6.975
50562W        W 3458  13.573  33.294   2.620
50563W        W 3459  29.920  27.803   0.876
50564W        W 3460   1.588  18.122  10.321
50565W        W 3461   3.945   5.337   0.018
50566W        W 3462  10.995  16.120   7.472
50567W        W 3463   7.716  23.083   9.825
50568W        W 3464  14.027  14.078   8.577
50569W        W 3465  18.793  24.564   2.101
50570W        W 3466  18.774   2.401   9.263
50571W        W 3467   4.301  17.531  10.099
50572W        W 3468  34.730  28.377   8.597
50573W        W 3469  31.575  13.269   1.639
50574W        W 3470  35.531  17.323   9.480
50575W        W 3471   9.675  26.067   7.919
50576W        W 3472  11.863   1.155   2.436
50577W        W 3473  16.731  10.811   9.380
50578W        W 3474  32.528  26.813   1.599
50579W        W 3475   0.486  29.471   2.665
50580W        W 3476  21.850   9.473   2.040
50581W        W 3477  30.311  26.200   9.386
50582W        W 3478  31.453  18.803   8.920
50583W        W 3479  29.162   9.079  10.121
50584W        W 3480   7.680  22.700  10.112
50585W        W 3481  32.284   8.248   3.257
50586W        W 3482   3.402  11.099   3.349
50587W        W 3483  20.108  30.241   0.222
50588W        W 3484  26.883   8.606   9.257
50589W        W 3485  22.525  30.952   0.317
50590W        W 3486   0.889  17.610   1.814
50591W        W 3487  31.785  19.165   0.736
50592W        W 3488  35.019  31.801   0.038
50593W        W 3489  33.330  21.833   0.634
50594W        W 3490  14.413   3.802   1.992
50595W        W 3491   8.048  29.062   0.363
50596W        W 3492  12.410   3.784   9.499
50597W        W 3493  20.945  17.339   3.053
50598W        W 3494   7.516   4.767   9.233
50599W        W 3495   0.016  24.965   2.206
50600W        W 3496   1.436  32.963   2.774
50601W        W 3497   1.388  32.654   7.753
50602W        W 3498  12.648   0.789   1.387
50603W        W 3499  33.718  32.762   1.395
50604W        W 3500  29.680  26.543   0.675
50605W        W 3501  23.633  13.541   3.378
50606W        W 3502   0.103  23.528   0.354
50607W        W 3503  14.454  17.294   0.820
50608W        W 3504  34.302   4.738   3.293
50609W        W 3505  20.994   1.779   2.765
50610W        W 3506  34.794  18.856  10.293
50611W        W 3507  15.279  18.861   1.084
50612W        W 3508  14.523  22.547   0.959
50613W        W 3509   0.494  19.075   8.511
50614W        W 3510  13.117   3.142   2.345
50615W        W 3511  21.416  20.514   3.498
50616W        W 3512   9.472  32.466   7.773
50617W        W 3513  14.195  14.802   8.832
50618W        W 3514   9.761  28.813   1.717
50619W        W 3515  12.695  35.834   7.450
50620W        W 3516  23.839   0.177   2.406
50621W        W 3517  29.363  22.414   2.449
50622W        W 3518  33.368  35.051   3.521
50623W        W 3519  35.485  20.764   0.412
50624W        W 3520  13.205  35.553  10.096
50625W        W 3521  25.340   1.912   0.179
50626W        W 3522  10.725   5.508   2.429
50627W        W 3523  17.115   5.607   9.228
50628W        W 3524   4.248   2.050   2.671
50629W        W 3525   5.046  25.217   9.717
50630W        W 3526  14.027  10.927   3.108
50631W        W 3527  34.251  21.853   1.300
50632W        W 3528  28.332   5.800   2.666
50633W        W 3529  22.536  15.472   0.070
50634W        W 3530  29.226  31.910   1.882
50635W        W 3531  24.081  11.944   2.566
50636W        W 3532  19.262   4.343   9.586
50637W        W 3533  23.614  24.447   8.258
50638W        W 3534  13.722   8.851   9.813
50639W        W 3535  10.296  20.570   2.658
50640W        W 3536  19.065  26.788   3.411
50641W        W 3537  19.313   6.453   8.275
50642W        W 3538  29.992  11.951   1.066
50643W        W 3539   5.744  11.838   0.026
50644W        W 3540  13.153  34.642   0.725
50645W        W 3541   5.274  20.270   8.138
50646W        W 3542  35.195   5.829  10.263
50647W        W 3543  17.600  28.172   1.480
50648W        W 3544   6.242   7.080   2.345
50649W        W 3545  27.748  17.075  10.015
50650W        W 3546  14.708  11.038   2.775
50651W        W 3547  25.257   0.568   1.554
50652W        W 3548  19.172  21.791   0.091
50653W        W 3549   0.786  13.624   2.537
50654W        W 3550  29.387  34.180   8.631
50655W        W 3551  34.742  32.214   2.430
50656W        W 3552  19.682   8.884   1.940
50657W        W 3553  23.213  29.656   7.931
50658W        W 3554  28.970  17.124   9.817
50659W        W 3555  28.208  28.322   9.555
50660W        W 3556  35.795  11.282   1.845
50661W        W 3557   8.334  35.743   2.355
50662W        W 3558  11.276  14.728   2.989
50663W        W 3559  32.656   2.017   2.193
50664W        W 3560   5.531  29.633   9.696
50665W        W 3561  25.247   9.447  10.135
50666W        W 3562  30.776   2.583   9.929
50667W        W 3563  18.662  10.885   9.382
50668W        W 3564  20.525  12.745   1.956
50669W        W 3565   2.895  30.784   7.991
50670W        W 3566  17.407  25.441   0.112
50671W        W 3567  16.277  16.555   3.187
50672W        W 3568   3.293  33.251   1.334
50673W        W 3569  32.493   6.946   1.705
50674W        W 3570   0.866  33.031   8.800
50675W        W 3571  16.437  10.465   9.585
50676W        W 3572  10.339  23.215   9.031
50677W        W 3573  31.013   2.602   3.634
50678W        W 3574  25.342  25.758   0.760
50679W        W 3575   4.007  16.190   7.795
50680W        W 3576  28.369  14.302   1.298
50681W        W 3577   4.038   8.566   8.041
50682W        W 3578  13.473  29.803   2.642
50683W        W 3579  32.610  34.734   2.554
50684W        W 3580   6.013  19.693   3.067
50685W        W 3581  17.009  28.294   9.304
50686W        W 3582  14.788   7.884   0.846
50687W        W 3583  10.944  32.585   2.534
50688W        W 3584  35.104  28.857   2.274
50689W        W 3585  30.690  21.959   2.188
50690W        W 3586  18.212  20.170   0.801
50691W        W 3587  21.719  10.218   8.928
50692W        W 3588   7.095  15.124   2.465
50693W        W 3589  25.572  17.222   0.957
50694W        W 3590  13.493  18.570   1.240
50695W        W 3591  11.896  17.450   1.874
50696W        W 3592  28.692  12.691   2.747
50697W        W 3593  16.224   1.771   7.505
50698W        W 3594   2.755  35.190   1.900
50699W        W 3595   9.933  16.894   8.928
50700W        W 3596  33.808   3.011   1.702
50701W        W 3597  13.613  33.097   3.164
50702W        W 3598   5.626  31.670   1.511
50703W        W 3599   4.169  12.685   2.890
50704W        W 3600   8.526   8.204   7.785
50705W        W 3601  21.528   3.298   9.095
50706W        W 3602  19.959   5.921   9.148
50707W        W 3603   5.273  11.655   0.871
50708W        W 3604  33.137   9.887   9.349
50709W        W 3605  14.136   9.261   1.840
50710W        W 3606   1.802  24.877   4.058
50711W        W 3607  29.857  33.017   7.169
50712W        W 3608  35.722   6.334   8.390
50713W        W 3609   8.646   8.698   2.718
50714W        W 3610   0.338  23.785   0.702
50715W        W 3611  15.464  27.111   9.230
50716W        W 3612  30.565  15.966   9.154
50717W        W 3613   1.520  20.267   8.477
50718W        W 3614  20.561  19.662   2.624
50719W        W 3615   9.491  22.780   1.477
50720W        W 3616  27.931   2.996  10.045
50721W        W 3617  26.811  27.955   1.908
50722W        W 3618  22.906   1.811   0.843
50723W        W 3619  15.765  21.194   9.829
50724W        W 3620  15.214  28.545  10.219
50725W        W 3621   4.539   4.092   7.540
50726W        W 3622  35.673   3.150   9.785
50727W        W 3623  26.151  31.091   0.692
50728W        W 3624  23.338  25.535   9.172
50729W        W 3625  19.132  14.827   1.724
50730W        W 3626  29.631  24.998   1.958
50731W        W 3627  19.426  20.525   7.912
50732W        W 3628  33.379  35.226   9.355
50733W        W 3629  35.976  35.230   1.925
50734W        W 3630  25.295  15.089   1.578
50735W        W 3631   3.440   1.260   1.483
50736W        W 3632   8.039  20.632   8.379
50737W        W 3633  16.132  24.349   1.952
50738W        W 3634  29.476  12.501   0.573
50739W        W 3635   0.367  31.914   1.672
50740W        W 3636  10.944   1.358   2.547
50741W        W 3637  16.476  16.789   0.078
50742W        W 3638   8.238  20.364   7.577
50743W        W 3639  12.251  18.625   1.519
50744W        W 3640  20.695   4.720   1.358
50745W        W 3641  25.160  34.053   0.591
50746W        W 3642  27.801  11.452   1.938
50747W        W 3643  14.146  18.834   3.117
50748W        W 3644  12.466  32.357   2.070
50749W        W 3645  24.544  20.102  10.219
50750W        W 3646  24.118  29.139   9.255
50751W        W 3647  20.564  20.751   8.313
50752W        W 3648   7.345  31.721   0.619
50753W        W 3649  12.371  10.812   9.197
50754W        W 3650  18.667  18.090   9.125
50755W        W 3651   6.751   1.030   9.899
50756W        W 3652  31.891  25.640   9.898
50757W        W 3653  20.920  35.196   1.842
50758W        W 3654  17.597  15.240   7.230
50759W        W 3655  34.282  27.998   2.186
50760W        W 3656   8.896   0.166   7.593
50761W        W 3657  35.210   3.849   9.492
50762W        W 3658  18.140  13.318   1.223
50763W        W 3659  23.450   3.436   2.603
50764W        W 3660  19.150  23.897   2.048
50765W        W 3661  14.694   4.519   3.579
50766W        W 3662   0.709  33.982  10.136
50767W        W 3663   1.413   7.735   1.779
50768W        W 3664   0.187  27.133   9.300
50769W        W 3665  11.734  16.717   9.906
50770W        W 3666  11.368  26.339   0.740
50771W        W 3667  20.367  12.968   3.269
50772W        W 3668   5.933   4.707   1.375
50773W        W 3669  31.106  26.318   8.985
50774W        W 3670   5.181  28.715   9.858
50775W        W 3671   6.052   7.715   3.402
50776W        W 3672  13.307   6.597   9.932
50777W        W 3673   7.274  25.435   0.363
50778W        W 3674  11.283  28.615   9.976
50779W        W 3675  31.693  10.415   2.998
50780W        W 3676  10.290  35.827   8.686
50781W        W 3677  14.473   6.757   7.914
50782W        W 3678   9.240  20.326   1.042
50783W        W 3679  29.675  29.019   7.853
50784W        W 3680  25.525  17.039   2.334
50785W        W 3681  22.944  20.028   0.298
50786W        W 3682   4.437   0.015   0.705
50787W        W 3683   1.363  12.327   9.918
50788W        W 3684  18.992  22.651   2.876
50789W        W 3685  26.434  30.856   2.127
50790W        W 3686   1.047  22.198   2.086
50791W        W 3687   2.510   1.510   8.401
50792W        W 3688  11.109  14.596   9.802
50793W        W 3689   4.375   3.711   3.310
50794W        W 3690  35.112  30.207   0.088
50795W        W 3691  25.170   9.218   2.278
50796W        W 3692   3.487  11.830   3.146
50797W        W 3693  24.135  15.263   7.292
50798W        W 3694  19.297  12.136   8.089
50799W        W 3695  30.336  33.054   9.618
50800W        W 3696  29.679  17.160   1.706
50801W        W 3697  13.137  13.039   9.003
50802W        W 3698  11.110   4.535   1.320
50803W        W 3699   1.672  20.366   0.236
50804W        W 3700   9.585  14.671   9.718
50805W        W 3701  32.196  24.226   2.405
50806W        W 3702   9.891  11.866   2.835
50807W        W 3703  35.130  18.486   0.068
50808W        W 3704  31.437   9.925   2.646
50809W        W 3705  25.098  18.909   0.070
50810W        W 3706  34.213  27.650   9.030
50811W        W 3707  26.635   0.975   8.509
50812W        W 3708  23.972  33.973   9.783
50813W        W 3709  20.968   0.719   9.298
50814W        W 3710   8.460  20.424   9.132
50815W        W 3711  19.859   4.406   0.476
50816W        W 3712  30.872  33.797   1.486
50817W        W 3713  12.823   1.626   9.773
50818W        W 3714  11.597  18.569   0.347
50819W        W 3715  31.705  30.162   2.177
50820W        W 3716  11.535  20.211   2.711
50821W        W 3717  23.221  31.155   1.902
50822W        W 3718   7.928  27.820   8.927
50823W        W 3719  35.691  26.491   2.676
50824W        W 3720  27.770   2.906   1.204
50825W        W 3721  21.890  22.119   8.062
50826W        W 3722   6.740   3.724   9.649
50827W        W 3723  27.893   6.706   2.773
50828W        W 3724   5.837   2.108   2.133
50829W        W 3725  11.059  28.583   9.028
50830W        W 3726  22.887  20.555   0.797
50831W        W 3727  13.588  24.425   3.273
50832W        W 3728  35.818   2.158   0.369
50833W        W 3729   0.710  10.420   8.577
50834W        W 3730  23.745  21.682   8.953
50835W        W 3731  30.491  11.627   4.100
50836W        W 3732   2.859   3.566   8.357
50837W        W 3733   9.743  12.250   3.233
50838W        W 3734   8.172   7.833   9.805
50839W        W 3735  12.556  22.650   2.768
50840W        W 3736  14.876  31.221   8.352
50841W        W 3737  18.380  15.201   9.422
50842W        W 3738  32.895  35.518   9.752
50843W        W 3739  31.259  35.401   0.969
50844W        W 3740  19.960  17.190   2.217
50845W        W 3741   8.682  19.451   0.648
50846W        W 3742  24.030  19.361  10.070
50847W        W 3743  24.426  34.663   2.518
50848W        W 3744   0.047  31.014   2.534
50849W        W 3745   9.718  16.900   0.990
50850W        W 3746  17.380  23.539   3.234
50851W        W 3747  16.610  25.999   8.828
50852W        W 3748  21.260   2.252   8.874
50853W        W 3749   9.626  10.382   0.464
50854W        W 3750  29.914  14.424   0.169
50855W        W 3751  34.660  14.016   0.322
50856W        W 3752   2.881  15.549   2.644
50857W        W 3753  24.948   9.486   9.016
50858W        W 3754  20.138  29.191   3.717
50859W        W 3755  28.830   2.944   0.212
50860W        W 3756  19.732   7.250   2.847
50861W        W 3757  24.980  23.249   8.886
50862W        W 3758   4.961   7.779   6.859
50863W        W 3759   6.150   1.568   3.162
50864W        W 3760  18.082  35.683   0.775
50865W        W 3761   5.185  29.607   0.781
50866W        W 3762   8.444  13.945   3.044
50867W        W 3763   1.059   2.704   1.981
50868W        W 3764  12.008   9.608   9.008
50869W        W 3765  17.242  20.027   3.965
50870W        W 3766  13.228   1.115   0.713
50871W        W 3767  30.320  14.606   1.991
50872W        W 3768   1.917  29.129   0.929
50873W        W 3769   8.756   5.502   7.822
50874W        W 3770  26.910  24.248   8.212
50875W        W 3771  19.141  35.054   9.113
50876W        W 3772  27.953  29.161   8.171
50877W        W 3773  21.604  30.528   0.352
50878W        W 3774   0.987  33.417   8.449
50879W        W 3775   1.894  13.547   0.843
50880W        W 3776  32.750  35.859   1.993
50881W        W 3777  20.366  30.460   2.591
50882W        W 3778  28.138  30.357   2.022
50883W        W 3779  29.292   2.827   8.091
50884W        W 3780   9.776  32.065   1.024
50885W        W 3781   4.681   7.037   3.191
50886W        W 3782  34.247  16.837   2.246
50887W        W 3783  29.716   5.981   8.870
50888W        W 3784  34.985  11.959   3.401
50889W        W 3785   7.870   5.779  10.270
50890W        W 3786  25.621   7.886   3.091
50891W        W 3787  34.734  27.682   0.004
50892W        W 3788  25.024  31.532   3.472
50893W        W 3789  15.858   2.652   8.701
50894W        W 3790   4.667   9.425   9.275
50895W        W 3791  20.185  16.343   3.527
50896W        W 3792   4.803  35.246   0.827
50897W        W 3793  18.312   1.649   8.621
50898W        W 3794  23.160  17.002   2.595
50899W        W 3795  23.455  34.150   0.223
50900W        W 3796  32.151   0.125   9.828
50901W        W 3797  27.442  34.223   2.667
50902W        W 3798   0.799   9.239   9.569
50903W        W 3799  32.577  19.354   1.718
50904W        W 3800  33.622   1.354   8.587
50905W        W 3801  30.737  29.765   0.485
50906W        W 3802  23.700  10.352   1.244
50907W        W 3803  22.339  11.625   1.694
50908W        W 3804  23.426  17.341   1.297
50909W        W 3805  29.873  26.548   8.317
50910W        W 3806  34.702  11.836   7.808
50911W        W 3807  13.078  30.348   0.283
50912W        W 3808  21.862   3.837   8.622
50913W        W 3809  27.851  19.676   7.999
50914W        W 3810  19.310  12.820   3.770
50915W        W 3811  28.677  23.234   2.410
50916W        W 3812  26.653   4.552   2.859
50917W        W 3813  20.622  23.477   0.131
50918W        W 3814  19.360   8.460  10.130
50919W        W 3815   9.910  24.486   0.210
50920W        W 3816  34.161   5.295   7.444
50921W        W 3817  20.746  28.413   9.239
50922W        W 3818  19.159   0.604   9.822
50923W        W 3819  29.212  29.021   3.575
50924W        W 3820   7.061  23.694  10.174
50925W        W 3821   4.426  12.712   9.555
50926W        W 3822  13.012  22.132   8.801
50927W        W 3823  20.943  21.834   9.805
50928W        W 3824  12.923  24.182   2.636
50929W        W 3825   3.143  11.761   2.775
50930W        W 3826  26.196  26.975   1.556
50931W        W 3827  24.366  13.049   9.709
50932W        W 3828  31.176   0.541   1.432
50933W        W 3829   3.348   9.120   9.061
50934W        W 3830   5.229  10.293   8.528
50935W        W 3831  31.640   2.742   8.598
50936W        W 3832  34.489   2.227   6.853
50937W        W 3833   7.309  23.438   2.569
50938W        W 3834   6.157   0.055   8.856
50939W        W 3835  27.045  20.945   1.067
50940W        W 3836   3.096   6.643   8.843
50941W        W 3837  14.023  30.098   7.762
50942W        W 3838   9.467  26.433   0.082
50943W        W 3839  26.034  11.400   1.856
50944W        W 3840  10.928  19.357   1.992
50945W        W 3841   1.003  23.967   2.735
50946W        W 3842  22.727  22.745   1.125
50947W        W 3843   8.330   1.438   2.304
50948W        W 3844   3.635  27.274   9.084
50949W        W 3845  10.206  13.299  10.126
50950W        W 3846   4.739  16.153   0.800
50951W        W 3847  26.626  34.775   3.130
50952W        W 3848  34.301   4.260   1.032
50953W        W 3849  15.575  28.359   7.836
50954W        W 3850  28.515  19.519   1.019
50955W        W 3851   1.205   5.575   3.674
50956W        W 3852  30.597  10.715   8.110
50957W        W 3853  19.218  28.357   1.680
50958W        W 3854  26.465  35.468   1.614
50959W        W 3855  32.505  11.327   3.004
50960W        W 3856  11.568  25.555   0.182
50961W        W 3857  26.742  30.224   0.364
50962W        W 3858  19.213  33.590  10.319
50963W        W 3859  12.517  14.793   1.282
50964W        W 3860  29.769  33.228   0.047
50965W        W 3861  35.368  15.676   0.003
50966W        W 3862   4.951  33.596   9.764
50967W        W 3863   7.325   5.938   7.804
50968W        W 3864  35.621   9.963   2.415
50969W        W 3865   5.947  29.685   8.350
50970W        W 3866  26.250  32.158   2.411
50971W        W 3867  27.498   6.025   9.987
50972W        W 3868  20.687   2.992   3.291
50973W        W 3869   5.683  23.513   0.613
50974W        W 3870  24.275   9.609   0.883
50975W        W 3871   1.055  31.651   0.956
50976W        W 3872  22.050   0.246   1.467
50977W        W 3873   8.731  24.798   1.304
50978W        W 3874  20.804  16.189   8.411
50979W        W 3875  15.435  23.726   2.889
50980W        W 3876  25.812  11.033   9.410
50981W        W 3877  14.896   3.990   3.509
50982W        W 3878  30.034  29.865   2.706
50983W        W 3879  12.850   9.456   8.405
50984W        W 3880  31.838  21.175   1.831
50985W        W 3881  29.085  13.446   0.784
50986W        W 3882  21.091  33.099   1.878
50987W        W 3883   9.968   6.148   2.027
50988W        W 3884   8.833   2.006   0.071
50989W        W 3885  17.301   5.406   0.004
50990W        W 3886  28.720  33.507  10.042
50991W        W 3887  34.519  26.693   2.491
50992W        W 3888   4.812  21.561  10.185
50993W        W 3889  27.558  25.509   7.056
50994W        W 3890   9.293  24.962  10.112
50995W        W 3891  11.238  32.209   9.039
50996W        W 3892   6.746   8.593   9.990
50997W        W 3893  33.360  10.656   0.533
50998W        W 3894  18.454  20.857   8.699
50999W        W 3895  35.996  30.266   3.144
51000W        W 3896   9.515  19.000   0.561
51001W        W 3897  32.140  11.203   9.632
51002W        W 3898  34.557  14.466   1.637
51003W        W 3899  35.395  14.229   9.299
51004W        W 3900  34.359  14.860   2.652
51005W        W 3901  29.009  18.296   2.050
51006W        W 3902   5.374   0.851   8.062
51007W        W 3903  33.016  15.319   0.856
51008W        W 3904  33.907   1.858   6.675
51009W        W 3905   6.897  12.138   9.009
51010W        W 3906   3.329  12.304   9.025
51011W        W 3907  27.669   0.392   9.694
51012W        W 3908   8.179  12.050   9.110
51013W        W 3909   2.197  12.612   0.375
51014W        W 3910  35.561  11.780   3.224
51015W        W 3911  15.722  20.851   3.197
51016W        W 3912   0.356   3.976   2.329
51017W        W 3913  11.599  28.095   8.149
51018W        W 3914   2.458  25.832   3.989
51019W        W 3915  28.316  20.600   2.819
51020W        W 3916  11.048  23.372   8.899
51021W        W 3917  30.361  16.263   0.202
51022W        W 3918  28.322  13.655   2.398
51023W        W 3919  25.227  30.645   0.407
51024W        W 3920  26.579   8.541   9.833
51025W        W 3921   2.822  21.340   9.381
51026W        W 3922  33.450  11.464   2.239
51027W        W 3923  34.367  23.849   8.222
51028W        W 3924  33.270  17.070   8.756
51029W        W 3925   8.429   8.959   9.593
51030W        W 3926  12.071  28.906   2.388
51031W        W 3927  19.706  30.431   0.957
51032W        W 3928  20.886  14.267   0.260
51033W        W 3929  24.919   6.954   3.066
51034W        W 3930  19.174  31.083  10.001
51035W        W 3931  17.834  24.852   9.064
51036W        W 3932  20.471  30.015   2.826
51037W        W 3933   1.903  32.700   2.732
51038W        W 3934  30.880  11.545   2.693
51039W        W 3935  17.615  11.871   0.080
51040W        W 3936  20.563  27.411   9.435
51041W        W 3937   0.336  23.604   3.466
51042W        W 3938  19.648  28.770   1.115
51043W        W 3939  17.307  18.456   8.283
51044W        W 3940  30.870  30.233   3.002
51045W        W 3941  19.780  24.794   7.736
51046W        W 3942   8.153   9.536   0.347
51047W        W 3943   5.734  22.525   0.723
51048W        W 3944  17.080   1.582   1.011
51049W        W 3945  26.837  26.246  10.211
51050W        W 3946   8.986  19.363   8.401
51051W        W 3947  34.657   8.049   7.917
51052W        W 3948  12.051   2.857   1.322
51053W        W 3949  17.722  16.353   8.148
51054W        W 3950   7.077  22.535   1.841
51055W        W 3951  28.304  35.049  10.115
51056W        W 3952   2.040   3.899   0.717
51057W        W 3953  20.475  30.107   4.180
51058W        W 3954  22.097  34.282   1.582
51059W        W 3955  32.156   6.032   9.689
51060W        W 3956   2.008   5.091  10.183
51061W        W 3957  23.832  18.597   8.682
51062W        W 3958  18.443   8.811   3.030
51063W        W 3959  33.546  23.657   0.790
51064W        W 3960  10.459  24.898   1.477
51065W        W 3961  21.238  35.257   1.356
51066W        W 3962   7.228   3.381   8.847
51067W        W 3963   8.376  16.779   3.712
51068W        W 3964  33.647  35.736   2.603
51069W        W 3965   1.403  22.287  10.015
51070W        W 3966  20.779  25.585   0.699
51071W        W 3967  16.328  33.538   0.746
51072W        W 3968   4.816   1.492   9.616
51073W        W 3969   8.347  21.839   1.514
51074W        W 3970  28.653   5.224   1.865
51075W        W 3971  25.194  28.828   2.167
51076W        W 3972   4.809  29.186   8.627
51077W        W 3973   1.659  23.595   9.077
51078W        W 3974  28.238  24.575   9.961
51079W        W 3975  17.478  28.088   2.400
51080W        W 3976  23.212  25.114   8.625
51081W        W 3977  16.714  22.990   7.010
51082W        W 3978  24.846  19.739   8.070
51083W        W 3979   1.249   2.779  10.030
51084W        W 3980  19.856  12.093   8.398
51085W        W 3981  32.752  27.744   8.849
51086W        W 3982   3.621   7.766  10.179
51087W        W 3983  30.076  22.757   0.922
51088W        W 3984  15.775  12.966   1.537
51089W        W 3985  12.500  29.358   0.415
51090W        W 3986  35.140   2.569   8.505
51091W        W 3987   8.767  32.207   2.969
51092W        W 3988   3.252  19.181   3.128
51093W        W 3989  10.181  31.606   9.562
51094W        W 3990  18.011   8.649   1.418
51095W        W 3991   3.993  29.886   8.278
51096W        W 3992  30.664  25.421   0.511
51097W        W 3993  26.831  25.665   8.443
51098W        W 3994  35.534  12.654   1.008
51099W        W 3995  26.914  29.923   1.200
51100W        W 3996   2.664  32.009   8.738
51101W        W 3997  33.932  21.784   9.552
51102W        W 3998  16.520  15.419   7.493
51103W        W 3999  12.984   6.062   3.286
51104W        W 4000   4.327  10.421   0.534
51105W        W 4001   2.685   9.520   3.547
51106W        W 4002  33.259  22.165   0.200
51107W        W 4003  17.597   7.859   3.286
51108W        W 4004  28.395  20.205   7.640
51109W        W 4005  28.468   7.265   3.070
51110W        W 4006   5.295  22.031   9.508
51111W        W 4007  29.174  30.802   8.516
51112W        W 4008   0.282  15.766   2.340
51113W        W 4009  11.449  22.338   0.123
51114W        W 4010   4.443  17.924   7.786
51115W        W 4011   3.814   5.495   8.550
51116W        W 4012  23.608  11.237   9.881
51117W        W 4013   1.295   7.432   0.810
51118W        W 4014   6.703   5.579   9.328
51119W        W 4015  24.072  31.695   3.095
51120W        W 4016   7.722  33.770   9.368
51121W        W 4017  31.220  15.360   8.573
51122W        W 4018   7.162  10.799   1.596
51123W        W 4019   0.125  28.046   2.545
51124W        W 4020  21.027  13.687   9.614
51125W        W 4021  19.345  10.717   3.666
51126W        W 4022   5.167  12.565   8.014
51127W        W 4023   7.430  19.889   2.715
51128W        W 4024  31.490  15.785   2.222
51129W        W 4025   5.249  34.131   8.962
51130W        W 4026   2.591  12.315   0.324
51131W        W 4027   4.268   7.456   2.890
51132W        W 4028  10.504  26.020   8.408
51133W        W 4029  33.932  24.744   9.077
51134W        W 4030   9.791  28.362   1.110
51135W        W 4031   8.292  34.931   8.915
51136W        W 4032  22.279   8.535   8.018
51137W        W 4033  11.542  29.485   8.255
51138W        W 4034  16.789  12.891   2.071
51139W        W 4035  16.504  26.651   2.251
51140W        W 4036  12.733  30.012   0.872
51141W        W 4037  15.825  26.380  10.307
51142W        W 4038  18.064   0.869   9.266
51143W        W 4039   9.127  19.806   8.844
51144W        W 4040  22.018  24.903   7.552
51145W        W 4041  19.431  18.766   9.937
51146W        W 4042  16.227   4.210   7.375
51147W        W 4043  32.459  27.660   9.691
51148W        W 4044  15.728  13.547   0.733
51149W        W 4045  22.973   7.505   2.917
51150W        W 4046  33.020  13.122   9.444
51151W        W 4047  27.181   7.766   3.033
51152W        W 4048   4.099   1.990   9.224
51153W        W 4049  32.939  27.237   8.724
51154W        W 4050   3.560  35.165   2.165
51155W        W 4051   2.919  24.263   3.705
51156W        W 4052  28.289  29.588   6.988
51157W        W 4053   8.716  16.264   2.480
51158W        W 4054  29.373  27.554   3.333
51159W        W 4055  31.325  29.524   0.309
51160W        W 4056  10.273  10.964   2.393
51161W        W 4057  29.490  31.707   8.203
51162W        W 4058  11.945   2.322   1.208
51163W        W 4059  13.638  31.138   8.808
51164W        W 4060   0.631  27.106   8.465
51165W        W 4061   9.552   8.797   8.040
51166W        W 4062  14.639  11.960   0.722
51167W        W 4063   4.979   1.150   7.842
51168W        W 4064   0.985  26.016   3.668
51169W        W 4065  24.368  13.369   9.307
51170W        W 4066  30.765  24.681   0.050
51171W        W 4067  22.106  20.849   2.176
51172W        W 4068  20.007   2.481   0.080
51173W        W 4069   6.860  16.783   0.001
51174W        W 4070   3.366  32.864   9.707
51175W        W 4071  13.959  34.569   9.873
51176W        W 4072  23.165  13.791   1.673
51177W        W 4073  30.128  14.688   2.423
51178W        W 4074  33.029  18.593   8.888
51179W        W 4075  27.520  10.400   3.432
51180W        W 4076  32.158  29.655   8.482
51181W        W 4077  27.772  33.485   1.994
51182W        W 4078   8.723  15.569   3.065
51183W        W 4079  29.418  14.372   2.394
51184W        W 4080  31.102   8.406   1.078
51185W        W 4081  27.783  30.856   8.871
51186W        W 4082  12.753  21.683   2.540
51187W        W 4083  16.302   0.477   9.163
51188W        W 4084   7.981   1.186  10.110
51189W        W 4085  25.909   1.323   7.300
51190W        W 4086   7.616   5.580   2.317
51191W        W 4087   2.209  15.098   1.948
51192W        W 4088   7.303  17.916   7.494
51193W        W 4089  18.844  14.485   2.549
51194W        W 4090   3.674  29.758   8.898
51195W        W 4091  34.664  31.340   0.842
51196W        W 4092   5.461  14.504   0.610
51197W        W 4093  22.550  19.246   8.524
51198W        W 4094  19.146   4.071  10.004
51199W        W 4095   4.015  24.998   1.089
51200W        W 4096   1.393  29.803  10.172
51201W        W 4097  33.740  25.809   0.761
51202W        W 4098  15.401  28.003   8.723
51203W        W 4099   5.370  11.629   8.189
51204W        W 4100  32.433  10.471   1.200
51205W        W 4101  22.047  13.861   9.927
51206W        W 4102  31.988  33.640   7.824
51207W        W 4103  20.773  35.382   2.658
51208W        W 4104  17.273  30.986   9.468
51209W        W 4105   7.530  10.774  10.246
51210W        W 4106   5.718   4.778   9.681
51211W        W 4107   7.623   3.582   7.703
51212W        W 4108  20.872  14.709   8.903
51213W        W 4109  16.346   8.328   3.012
51214W        W 4110   7.029  11.775   1.303
51215W        W 4111  33.185   8.762   8.163
51216W        W 4112  17.523  20.907   7.747
51217W        W 4113  10.374  27.663   8.013
51218W        W 4114  20.774  22.813   9.295
51219W        W 4115  15.192  32.536   1.445
51220W        W 4116   1.649  15.209   8.717
51221W        W 4117   4.250   3.293   9.616
51222W        W 4118  11.490  12.197   9.868
51223W        W 4119   1.794  31.091   3.002
51224W        W 4120   6.629  15.935   2.631
51225W        W 4121   8.671  11.545   7.813
51226W        W 4122   6.414   2.169  10.002
51227W        W 4123   6.786   6.804   2.693
51228W        W 4124  19.584  32.612   2.879
51229W        W 4125  19.566  27.082   2.236
51230W        W 4126  10.849   4.979   2.737
51231W        W 4127  13.410  15.449   1.608
51232W        W 4128  14.564  15.572   1.504
51233W        W 4129  23.735  16.042   8.398
51234W        W 4130  35.243  16.281   1.119
51235W        W 4131   6.695  13.199   1.642
51236W        W 4132  18.024  16.410   2.671
51237W        W 4133  18.494   8.042   1.887
51238W        W 4134  13.570  15.545   9.272
51239W        W 4135   7.181  17.315   8.170
51240W        W 4136  19.269   7.070   7.099
51241W        W 4137  28.117   8.305   2.371
51242W        W 4138  14.387   4.971   8.390
51243W        W 4139  25.909  28.781   9.023
51244W        W 4140   6.961  19.310   8.817
51245W        W 4141   1.915  28.064   2.728
51246W        W 4142   5.974  17.309   1.408
51247W        W 4143  28.047  12.400   1.000
51248W        W 4144   2.506  30.634   0.849
51249W        W 4145  29.847  23.973   8.519
51250W        W 4146  27.541  11.681   9.544
51251W        W 4147   0.092   2.804   3.462
51252W        W 4148  29.521  32.165   6.900
51253W        W 4149   4.753  14.916   7.788
51254W        W 4150   8.598   7.276  10.330
51255W        W 4151  27.321  28.495   2.509
51256W        W 4152  10.399  22.202   0.797
51257W        W 4153   6.343   8.396   1.251
51258W        W 4154  25.629  21.730   0.248
51259W        W 4155   5.544  17.076   8.835
51260W        W 4156  22.008  30.074   2.060
51261W        W 4157  10.551  19.886   8.265
51262W        W 4158  24.636  22.319   9.726
51263W        W 4159  27.436  12.930   1.765
51264W        W 4160   2.461  26.127   8.599
51265W        W 4161   9.636  28.648   2.214
51266W        W 4162  26.810  34.602   2.674
51267W        W 4163  18.556  16.893   1.921
51268W        W 4164   6.012  28.712   2.477
51269W        W 4165  27.395   7.077   2.039
51270W        W 4166   3.165  28.518   2.683
51271W        W 4167  29.565  30.222   7.454
51272W        W 4168  24.783   9.553   0.859
51273W        W 4169   6.407  22.299   3.226
51274W        W 4170  30.846  24.272   0.358
51275W        W 4171  16.147  30.721   9.815
51276W        W 4172  34.250  33.832   1.993
51277W        W 4173  15.811  31.967   8.403
51278W        W 4174   6.468   6.868   8.269
51279W        W 4175  19.061  33.829   1.363
51280W        W 4176   1.351  13.007   9.533
51281W        W 4177  27.461  29.921   1.339
51282W        W 4178   4.733   7.872   9.752
51283W        W 4179   1.114   4.812   1.020
51284W        W 4180  27.124   1.828   8.647
51285W        W 4181   9.132  20.112   9.425
51286W        W 4182  19.684   8.265   0.267
51287W        W 4183  12.538  34.879   0.105
51288W        W 4184  12.920   7.217   1.197
51289W        W 4185  14.250   3.572   0.637
51290W        W 4186  18.254  27.269   1.693
51291W        W 4187  13.347  11.917   8.463
51292W        W 4188  14.694   6.698   3.142
51293W        W 4189  29.490  10.390   1.497
51294W        W 4190  17.837  21.566   0.168
51295W        W 4191   0.937  28.056   9.027
51296W        W 4192  24.247  18.954  10.279
51297W        W 4193  20.186  17.702   8.158
51298W        W 4194  13.775  21.705   7.769
51299W        W 4195  24.774  15.730   9.383
51300W        W 4196  10.433  25.055   8.222
51301W        W 4197  19.493  14.586   7.546
51302W        W 4198  34.663  24.799   1.346
51303W        W 4199  12.173  15.323   2.540
51304W        W 4200   0.486   8.396   2.934
51305W        W 4201  19.666  24.619   8.927
51306W        W 4202  18.905  10.085   0.104
51307W        W 4203  13.572  20.993   1.980
51308W        W 4204  33.931   4.638   9.540
51309W        W 4205   4.388  20.278   0.905
51310W        W 4206  28.651  13.515   3.174
51311W        W 4207  17.163  14.513   2.813
51312W        W 4208  11.367  13.806  10.035
51313W        W 4209  26.984   4.458  10.271
51314W        W 4210   4.219  20.198   2.064
51315W        W 4211  14.806  31.871   2.699
51316W        W 4212  21.353  32.850   9.025
51317W        W 4213  30.185  19.539   0.461
51318W        W 4214  15.821  35.735   1.395
51319W        W 4215   6.861  25.752   0.193
51320W        W 4216  18.380  24.572   2.634
51321W        W 4217  11.986  22.086   9.885
51322W        W 4218  31.056  19.174   1.753
51323W        W 4219  12.534  26.360  10.020
51324W        W 4220  26.235   9.944   1.429
51325W        W 4221   3.290  25.036   9.928
51326W        W 4222  19.932  18.427   2.831
51327W        W 4223  35.896   0.056   9.200
51328W        W 4224  18.538  34.565   0.449
51329W        W 4225  25.750  19.900   9.738
51330W        W 4226   8.823  29.145   8.274
51331W        W 4227  33.123  21.922   1.089
51332W        W 4228  21.584   9.557   0.931
51333W        W 4229  23.273  23.756   0.081
51334W        W 4230  29.349  25.107   8.104
51335W        W 4231  24.816  15.627   3.180
51336W        W 4232   5.330  10.054   1.653
51337W        W 4233  17.648  32.208   1.051
51338W        W 4234  23.114  33.611  10.076
51339W        W 4235  18.625   3.918   2.547
51340W        W 4236   3.432  28.595   0.037
51341W        W 4237  35.156  13.127   8.661
51342W        W 4238  23.092   2.829   0.270
51343W        W 4239  17.977  19.031  10.221
51344W        W 4240   6.757  11.094   2.143
51345W        W 4241  35.122  14.796   8.756
51346W        W 4242   1.128   2.865   1.489
51347W        W 4243   9.540  30.401   2.113
51348W        W 4244  32.915  13.328   1.673
51349W        W 4245  16.139   9.221  10.163
51350W        W 4246   3.075  16.768   3.440
51351W        W 4247  35.724  23.520   8.842
51352W        W 4248  16.577  19.614  10.265
51353W        W 4249   8.229   9.483   8.038
51354W        W 4250   1.224  18.132   9.448
51355W        W 4251  27.509  15.322   0.895
51356W        W 4252   3.864   7.195   9.667
51357W        W 4253  26.508   6.424   0.551
51358W        W 4254   1.254  31.062   8.275
51359W        W 4255  23.824   9.864   8.551
51360W        W 4256  23.879  21.649   1.288
51361W        W 4257  31.643  19.055   3.293
51362W        W 4258   0.966  16.274   8.871
51363W        W 4259   6.413   6.046   8.003
51364W        W 4260  11.581   3.642   9.298
51365W        W 4261   1.102  35.819   1.964
51366W        W 4262   5.398  10.776   8.607
51367W        W 4263  25.896  35.050   0.942
51368W        W 4264   3.255   0.720   2.643
51369W        W 4265   6.925  11.603   7.642
51370W        W 4266   8.813  25.834   1.359
51371W        W 4267  26.149  15.628   1.074
51372W        W 4268  10.345  15.680   1.653
51373W        W 4269   4.299   1.005   0.908
51374W        W 4270  14.059  15.926  10.272
51375W        W 4271  26.619   3.850   8.704
51376W        W 4272   4.978  12.374   1.744
51377W        W 4273  17.044  35.526   8.896
51378W        W 4274   1.002  18.050   1.037
51379W        W 4275  35.544  32.848   3.921
51380W        W 4276  27.148  32.086   8.370
51381W        W 4277  26.939  29.626   7.783
51382W        W 4278   8.746  12.020   0.641
51383W        W 4279  30.510   4.876   1.073
51384W        W 4280  31.083  29.229   9.418
51385W        W 4281  35.177  35.176   2.568
51386W        W 4282  22.261  34.858   2.252
51387W        W 4283  27.907  18.632  10.016
51388W        W 4284   6.203   7.572   1.442
51389W        W 4285   0.823   6.691   2.075
51390W        W 4286  25.054  20.122  10.313
51391W        W 4287  18.094  30.405   0.129
51392W        W 4288  12.722  31.559   2.569
51393W        W 4289  11.251  22.271   9.577
51394W        W 4290  27.624   7.153   0.956
51395W        W 4291  30.264   0.153   0.923
51396W        W 4292  18.230  28.495   1.398
51397W        W 4293  18.899  28.852   8.015
51398W        W 4294  25.450  18.766   9.257
51399W        W 4295  15.230   9.812   1.358
51400W        W 4296   9.209   5.036   0.556
51401W        W 4297  20.218   7.382   9.009
51402W        W 4298  31.669   4.382   8.362
51403W        W 4299  13.541   2.566   8.983
51404W        W 4300  20.585  34.692   2.483
51405W        W 4301  11.978   7.114   1.791
51406W        W 4302   0.392  22.988   9.843
51407W        W 4303   2.334   7.425   9.280
51408W        W 4304  26.659  31.926   7.314
51409W        W 4305  35.354  31.098   2.494
51410W        W 4306   4.281  20.291   9.959
51411W        W 4307  24.453   8.247   1.151
51412W        W 4308  24.161  12.805   2.244
51413W        W 4309  15.324  21.858   1.857
51414W        W 4310  29.463  27.263  10.282
51415W        W 4311   2.793  25.011  10.308
51416W        W 4312  17.035   2.427   7.331
51417W        W 4313   6.248   7.683   2.574
51418W        W 4314  28.320  20.520   1.002
51419W        W 4315  24.689   4.605   1.894
51420W        W 4316   1.191  30.651   3.017
51421W        W 4317   2.416   0.060   8.119
51422W        W 4318   3.617  22.174   3.970
51423W        W 4319   4.885  22.067   0.766
51424W        W 4320   2.949   2.233   3.203
51425W        W 4321   7.569   8.568   2.394
51426W        W 4322  32.750  34.983   9.112
51427W        W 4323  15.845  25.678   9.864
51428W        W 4324  32.261  19.402   0.783
51429W        W 4325   2.304   4.958   8.599
51430W        W 4326   6.641  27.438   7.835
51431W        W 4327  16.891  30.543   7.476
51432W        W 4328   6.298  28.855   9.313
51433W        W 4329  26.558   4.167   1.324
51434W        W 4330  29.859  28.074   2.208
51435W        W 4331  13.663  10.761   2.059
51436W        W 4332  12.006  15.813   1.196
51437W        W 4333   9.697  12.583   9.104
51438W        W 4334  29.070  29.148   8.079
51439W        W 4335  11.450  15.041   2.100
51440W        W 4336  10.370  35.104   1.587
51441W        W 4337   2.122   9.308   3.341
51442W        W 4338  18.613   0.374   0.425
51443W        W 4339  26.355  17.765   7.459
51444W        W 4340   2.738  22.029   1.294
51445W        W 4341   1.737   6.003   2.365
51446W        W 4342  17.657   6.497   1.934
51447W        W 4343  25.805   5.875   3.301
51448W        W 4344  18.246   4.284   2.836
51449W        W 4345   5.804  28.768   9.441
51450W        W 4346   9.830  28.997  10.289
51451W        W 4347  10.609  21.052   0.247
51452W        W 4348  30.274  29.585   8.426
51453W        W 4349  17.967  14.005   8.758
51454W        W 4350   9.990   7.107   8.182
51455W        W 4351  30.737  28.462   8.164
51456W        W 4352  11.036  25.007   1.750
51457W        W 4353  21.653  35.105   0.368
51458W        W 4354  11.980  30.049   7.610
51459W        W 4355  16.157   5.588   3.002
51460W        W 4356  34.349  20.011   8.591
51461W        W 4357  25.730   5.829   7.714
51462W        W 4358  17.813  21.777   2.115
51463W        W 4359  35.730  31.051   2.148
51464W        W 4360  16.259  21.049   3.538
51465W        W 4361  18.386   2.259   8.504
51466W        W 4362   8.047  26.862   1.441
51467W        W 4363  35.203   6.455   2.389
51468W        W 4364   8.482  14.821   2.383
51469W        W 4365   6.946  15.359   8.924
51470W        W 4366   1.836   8.450   1.529
51471W        W 4367  32.064  11.946   2.944
51472W        W 4368  35.500  29.650   3.676
51473W        W 4369   0.813  29.127   2.464
51474W        W 4370   5.455  14.264   2.671
51475W        W 4371  16.303  34.876   2.328
51476W        W 4372  21.063  17.236   7.991
51477W        W 4373  26.556  12.540   9.900
51478W        W 4374  30.429  32.544   2.729
51479W        W 4375  30.405  31.611  10.240
51480W        W 4376   2.549  10.530   4.205
51481W        W 4377   7.057  33.002   2.647
51482W        W 4378  20.386  31.908   8.596
51483W        W 4379  14.265  25.311   8.285
51484W        W 4380  22.699  10.549   3.434
51485W        W 4381  23.382   3.230   0.036
51486W        W 4382  13.693  32.099   1.940
51487W        W 4383   8.159  19.141   9.421
51488W        W 4384   2.652  35.311   0.150
51489W        W 4385  21.894   8.525   9.044
51490W        W 4386   1.980  35.375   1.185
51491W        W 4387  18.875  33.404   3.391
51492W        W 4388   3.632   2.588   2.167
51493W        W 4389   6.703  22.562   2.311
51494W        W 4390  17.795  28.574   1.764
51495W        W 4391  16.622  21.777  10.195
51496W        W 4392  13.859  25.263   0.653
51497W        W 4393  35.752   5.294   1.062
51498W        W 4394   8.396   4.884   9.914
51499W        W 4395  26.522  16.849   0.388
51500W        W 4396  18.249  25.152   8.386
51501W        W 4397  11.798  14.801   9.384
51502W        W 4398  35.797   8.081   2.169
51503W        W 4399  33.881   5.639   1.252
51504W        W 4400  29.714   0.431  10.264
51505W        W 4401  10.630  33.983   0.194
51506W        W 4402  19.671  15.422   8.706
51507W        W 4403   2.460  33.833   3.647
51508W        W 4404  26.974   5.507   9.403
51509W        W 4405  30.580  27.336   2.277
51510W        W 4406   1.625  18.410   9.391
51511W        W 4407  32.423   6.113   1.682
51512W        W 4408  27.814   4.163   7.785
51513W        W 4409  27.174  25.235   8.464
51514W        W 4410  10.756   2.521   9.149
51515W        W 4411  30.310  35.801   1.995
51516W        W 4412  30.661  34.174   2.495
51517W        W 4413  22.671  22.171   1.804
51518W        W 4414  33.560   0.469  10.233
51519W        W 4415  15.458  35.053   1.307
51520W        W 4416  11.594  22.037   0.655
51521W        W 4417  31.130   7.521   1.831
51522W        W 4418  35.096   6.483   1.936
51523W        W 4419  35.613   7.705   9.774
51524W        W 4420  34.637  16.776   1.510
51525W        W 4421  20.387  11.478   2.429
51526W        W 4422  12.708  23.293   2.318
51527W        W 4423   2.089   5.950   9.044
51528W        W 4424  23.583  25.781   9.646
51529W        W 4425  13.253  15.089   8.105
51530W        W 4426   9.588   9.120   3.522
51531W        W 4427  29.862  14.986   2.999
51532W        W 4428   0.962  22.725   3.897
51533W        W 4429  20.735  29.697   0.760
51534W        W 4430  34.553  21.020   3.956
51535W        W 4431  29.517  13.371   0.297
51536W        W 4432  25.991  25.624   7.303
51537W        W 4433  11.898  26.702   1.521
51538W        W 4434  28.121   5.483   3.875
51539W        W 4435  18.634   8.420   2.739
51540W        W 4436  21.234  21.327   1.231
51541W        W 4437   5.203  15.956   0.884
51542W        W 4438   8.596  32.132   9.860
51543W        W 4439  13.048  20.852   7.738
51544W        W 4440  32.266  19.185   7.626
51545W        W 4441   1.228   0.245   7.400
51546W        W 4442  17.610  23.813   8.165
51547W        W 4443   7.852  15.396   0.783
51548W        W 4444  25.523  29.932  10.143
51549W        W 4445  26.951  30.948   2.099
51550W        W 4446  15.123   5.013   0.312
51551W        W 4447  15.550  32.020   8.903
51552W        W 4448   1.110  13.289   3.500
51553W        W 4449  30.834  25.069   1.438
51554W        W 4450   9.969  28.450   2.865
51555W        W 4451  31.443  10.503   7.705
51556W        W 4452  26.166  35.512   0.775
51557W        W 4453  22.745  34.362   9.091
51558W        W 4454  23.705  30.886  10.059
51559W        W 4455  27.352  23.397   3.413
51560W        W 4456  31.341  10.784   8.136
51561W        W 4457   1.647  13.763   2.807
51562W        W 4458   6.677  34.577   1.278
51563W        W 4459   5.090  26.706   8.049
51564W        W 4460  23.206  28.922   7.513
51565W        W 4461  34.818  26.427   3.462
51566W        W 4462  27.196  27.248   0.873
51567W        W 4463  31.235  24.426   7.728
51568W        W 4464   1.508  32.725   0.068
51569W        W 4465   4.367   0.423  10.103
51570W        W 4466  21.213   9.825  10.286
51571W        W 4467  19.538   2.821   1.612
51572W        W 4468  27.983  19.810   9.059
51573W        W 4469   0.981   5.713   0.629
51574W        W 4470  33.547  23.413   1.204
51575W        W 4471  13.444  21.605   1.247
51576W        W 4472   7.245  29.473   8.169
51577W        W 4473  34.007  13.316   9.223
51578W        W 4474   5.155   1.464   0.901
51579W        W 4475  10.847  12.841   1.397
51580W        W 4476  14.764  18.497   7.767
51581W        W 4477   0.231   1.124   1.007
51582W        W 4478  30.416  29.104   8.472
51583W        W 4479  33.345   9.800   8.023
51584W        W 4480  10.983  17.156   8.562
51585W        W 4481  11.280  30.308   0.669
51586W        W 4482  35.591  12.065   1.577
51587W        W 4483  30.376   9.473   0.822
51588W        W 4484   2.983   1.688   0.742
51589W        W 4485  10.832  12.198   6.844
51590W        W 4486   4.152  33.799   3.627
51591W        W 4487  19.812   8.665   9.104
51592W        W 4488  20.140  12.479   8.280
51593W        W 4489  23.388  32.435   3.022
51594W        W 4490   2.815   5.263   9.972
51595W        W 4491  26.181  11.300   7.744
51596W        W 4492   8.361   5.114   2.622
51597W        W 4493   4.365  26.458   0.086
51598W        W 4494   2.110  24.658   3.652
51599W        W 4495  25.193   4.068   0.270
51600W        W 4496   5.848  26.433   7.520
51601W        W 4497  23.163  28.595   7.039
51602W        W 4498  34.226  11.767   1.174
51603W        W 4499  19.313  12.025   3.137
51604W        W 4500  30.532  21.721   1.048
51605W        W 4501  20.156   8.614   2.176
51606W        W 4502   8.116   8.749   1.461
51607W        W 4503  35.619  10.335  10.074
51608W        W 4504  21.218   5.959   3.224
51609W        W 4505   7.593   7.782   9.385
51610W        W 4506  32.960  26.739   1.164
51611W        W 4507   6.334   2.374   3.524
51612W        W 4508  21.566  18.115   1.691
51613W        W 4509  25.544  23.352   1.308
51614W        W 4510  27.047  12.436   1.081
51615W        W 4511   1.047   1.568   6.989
51616W        W 4512  32.896  26.257   1.292
51617W        W 4513   5.430  20.703   0.278
51618W        W 4514  28.145   6.083   7.995
51619W        W 4515  13.073  28.434   0.650
51620W        W 4516  32.752   2.510   8.239
51621W        W 4517  20.661  13.194   8.874
51622W        W 4518  27.972  20.483   7.532
51623W        W 4519  17.464  10.717   1.190
51624W        W 4520   9.885   6.548   9.022
51625W        W 4521  22.763  32.474  10.079
51626W        W 4522  23.528   7.498   2.048
51627W        W 4523  24.398  17.905   9.067
51628W        W 4524   2.226   4.361   2.993
51629W        W 4525  35.146   9.312   2.623
51630W        W 4526  27.347  16.758   0.818
51631W        W 4527   4.377   2.013   3.182
51632W        W 4528   1.693  35.820   8.125
51633W        W 4529   9.772  14.676   8.044
51634W        W 4530  12.782   1.278   9.389
51635W        W 4531  12.639  32.967   8.326
51636W        W 4532  31.745  30.042   2.665
51637W        W 4533  25.640  27.446   9.783
51638W        W 4534  35.593  21.984   2.123
51639W        W 4535  24.153  11.177   7.942
51640W        W 4536   9.413   7.958   8.285
51641W        W 4537  30.981  19.362   8.799
51642W        W 4538  34.581  12.528   2.381
51643W        W 4539  25.678  26.413   7.865
51644W        W 4540  35.555  26.224  10.056
51645W        W 4541  16.945   7.105   1.574
51646W        W 4542   4.794  11.381   1.738
51647W        W 4543  12.511  29.352   8.917
51648W        W 4544  14.940  26.628   0.119
51649W        W 4545  34.499  11.356   2.237
51650W        W 4546  30.459   8.078   0.841
51651W        W 4547  31.180  31.018   9.726
51652W        W 4548   1.147  23.644   1.239
51653W        W 4549  12.197  35.029   8.986
51654W        W 4550   3.907  32.791   1.105
51655W        W 4551  26.991  18.501  10.010
51656W        W 4552  31.926   3.837   7.899
51657W        W 4553   6.191  18.903   1.912
51658W        W 4554  27.764  17.735   0.822
51659W        W 4555   4.446  28.828   8.716
51660W        W 4556  16.227  29.662   8.641
51661W        W 4557  22.214  33.287   1.679
51662W        W 4558  29.904  33.128   7.803
51663W        W 4559  27.842  24.045   2.886
51664W        W 4560  35.294  26.960   8.225
51665W        W 4561   4.010  25.108   0.538
51666W        W 4562  28.926   5.209   0.467
51667W        W 4563   9.408  11.818   1.276
51668W        W 4564  31.647   3.448   8.675
51669W        W 4565  14.517  24.571   8.965
51670W        W 4566  12.397  31.305   8.700
51671W        W 4567  18.335  21.564   1.226
51672W        W 4568  17.427   3.594   0.046
51673W        W 4569  26.348  17.829   9.667
51674W        W 4570   3.139  27.789   7.829
51675W        W 4571  27.792   3.146   8.993
51676W        W 4572  19.959  14.551   7.389
51677W        W 4573   5.818  21.966   0.831
51678W        W 4574   3.091  32.233   7.755
51679W        W 4575  26.348   3.272   1.291
51680W        W 4576  22.218   5.649   8.944
51681W        W 4577  10.018  19.596   2.344
51682W        W 4578   2.979  24.609   1.958
51683W        W 4579   7.859   2.904   9.388
51684W        W 4580   9.799   9.856   0.369
51685W        W 4581   6.109  10.396   2.319
51686W        W 4582   7.727  33.374   2.597
51687W        W 4583  29.475  29.429   8.098
51688W        W 4584  25.908  25.157   9.513
51689W        W 4585  28.255  24.517   1.369
51690W        W 4586  19.448  21.976   2.447
51691W        W 4587   4.045  32.819   2.096
51692W        W 4588   3.886  28.411   2.991
51693W        W 4589  12.861   4.157   9.578
51694W        W 4590   3.944  35.265   8.681
51695W        W 4591  32.382  31.956   9.624
51696W        W 4592   2.482   3.794   2.213
51697W        W 4593  11.463   9.482   9.696
51698W        W 4594  20.099  29.047   9.301
51699W        W 4595  26.317   0.255   1.760
51700W        W 4596  12.400  23.190   0.203
51701W        W 4597  26.367  28.508   9.072
51702W        W 4598  19.781   3.448   9.332
51703W        W 4599  24.261  34.335   0.251
51704W        W 4600  30.893  24.013   1.645
51705W        W 4601  19.116  31.285   0.106
51706W        W 4602  10.417  28.040   8.889
51707W        W 4603  31.953   1.215   7.272
51708W        W 4604  12.023  27.379   3.094
51709W        W 4605  10.143  20.915   7.848
51710W        W 4606   9.413  24.301   7.568
51711W        W 4607  28.197   2.748   1.463
51712W        W 4608   8.871   0.729   1.476
51713W        W 4609   7.962  14.363   9.629
51714W        W 4610  10.674   0.083   8.476
51715W        W 4611  34.568   7.728   9.225
51716W        W 4612  15.167   9.532   0.640
51717W        W 4613  24.775  10.602   8.640
51718W        W 4614  29.016  19.842   8.234
51719W        W 4615  14.844   8.389   1.189
51720W        W 4616   8.177   8.137   0.698
51721W        W 4617   4.154  27.226   1.857
51722W        W 4618  25.912  21.723  10.162
51723W        W 4619  23.501  33.915   1.007
51724W        W 4620   8.500  19.302   9.843
51725W        W 4621  12.335  20.387   9.682
51726W        W 4622  15.218   5.451  10.010
51727W        W 4623  19.014   1.273   1.514
51728W        W 4624  29.108   4.210   3.130
51729W        W 4625   5.191  19.424   3.336
51730W        W 4626  31.993  28.440   1.506
51731W        W 4627   6.212  29.265   8.468
51732W        W 4628  29.971  35.995   2.375
51733W        W 4629  30.570  34.538   8.298
51734W        W 4630  27.575   7.530   2.433
51735W        W 4631  26.922  23.731   8.610
51736W        W 4632  16.316  23.558   3.693
51737W        W 4633  14.723  28.706  10.114
51738W        W 4634   7.706  18.952   9.291
51739W        W 4635  34.432  25.181   3.181
51740W        W 4636  17.616   0.885   2.046
51741W        W 4637  24.028  20.104   2.732
51742W        W 4638  10.322  31.432   1.206
51743W        W 4639  35.962   8.920   1.209
51744W        W 4640  26.434  12.522   0.433
51745W        W 4641  24.190   2.918   1.491
51746W        W 4642  31.379  33.061   2.850
51747W        W 4643  27.408  34.488   1.834
51748W        W 4644  17.274   6.232   3.179
51749W        W 4645  23.471  20.664   8.793
51750W        W 4646  23.061   7.419  10.016
51751W        W 4647   1.523  30.649   3.712
51752W        W 4648  28.582  32.537   1.047
51753W        W 4649  32.743  20.066   2.653
51754W        W 4650  24.902   4.288   0.640
51755W        W 4651  26.980  26.760   0.570
51756W        W 4652  27.770   5.324   0.858
51757W        W 4653   8.343  32.333   2.023
51758W        W 4654  16.074  11.039   0.070
51759W        W 4655  18.004   5.639   1.381
51760W        W 4656  14.465  23.941   2.453
51761W        W 4657  29.519  12.064   9.266
51762W        W 4658   4.980  20.198   1.543
51763W        W 4659  19.375  17.159   0.905
51764W        W 4660   3.166  19.797   8.462
51765W        W 4661  26.278  31.800   0.354
51766W        W 4662   9.321   9.744   8.735
51767W        W 4663  28.574  29.054   0.805
51768W        W 4664   3.531  22.646   9.226
51769W        W 4665  15.176  11.623   1.459
51770W        W 4666  31.032  23.064   1.791
51771W        W 4667  29.989   0.416   1.251
51772W        W 4668  35.727  31.381   1.088
51773W        W 4669  30.300  24.310   8.113
51774W        W 4670  17.888  20.390   1.937
51775W        W 4671  13.694  30.085   3.641
51776W        W 4672  33.700  11.109   7.970
51777W        W 4673  34.115  11.041   2.054
51778W        W 4674  21.444  11.443   8.615
51779W        W 4675  13.089  22.111   1.163
51780W        W 4676   4.281  18.540   9.859
51781W        W 4677  20.041  18.103   9.921
51782W        W 4678   0.957  11.826   0.718
51783W        W 4679  21.620   1.360   8.955
51784W        W 4680  20.122  11.065   1.228
51785W        W 4681   0.714   2.852   8.099
51786W        W 4682   4.476  16.912   7.593
51787W        W 4683  30.587  13.079   1.026
51788W        W 4684  12.910  32.201   3.540
51789W        W 4685  26.448  16.766   2.418
51790W        W 4686  16.833  34.944   8.458
51791W        W 4687  19.524  29.623   1.516
51792W        W 4688  32.816   8.680   0.769
51793W        W 4689  30.860  14.807   1.413
51794W        W 4690  13.247  10.810  10.111
51795W        W 4691  27.131  19.858   9.813
51796W        W 4692  14.990  32.938   2.674
51797W        W 4693  23.932  29.745   2.101
51798W        W 4694  13.881  22.057   0.504
51799W        W 4695  32.064  23.280   1.088
51800W        W 4696  26.867  22.055   1.200
51801W        W 4697  29.984   6.735   0.961
51802W        W 4698  27.590   1.582  10.079
51803W        W 4699  11.124  15.727   1.229
51804W        W 4700   8.105  13.458   9.031
51805W        W 4701  13.180   0.456   7.074
51806W        W 4702  17.587   6.887   0.092
51807W        W 4703   9.020   6.367   2.888
51808W        W 4704  11.559  31.126   9.767
51809W        W 4705  10.194   0.980   2.352
51810W        W 4706  32.304  26.947   2.914
51811W        W 4707   7.631  11.492   2.000
51812W        W 4708   3.637  29.415   8.451
51813W        W 4709  31.120  17.961   9.874
51814W        W 4710   8.565   0.354   8.745
51815W        W 4711  22.582  29.454   9.330
51816W        W 4712  33.341  34.233   9.790
51817W        W 4713   0.035  29.773   8.218
51818W        W 4714  31.825  23.485   2.580
51819W        W 4715   1.520   1.422   0.214
51820W        W 4716  14.844   9.885   0.473
51821W        W 4717   7.973  25.753  10.062
51822W        W 4718   5.366   2.736   2.907
51823W        W 4719  17.186  27.951  10.022
51824W        W 4720  33.975  35.489   8.235
51825W        W 4721  17.803   2.035   0.342
51826W        W 4722  14.356  15.636   7.650
51827W        W 4723   9.787   2.467   9.128
51828W        W 4724  20.108  17.378   1.429
51829W        W 4725  22.669  34.363   3.517
51830W        W 4726  35.241   2.133   7.409
51831W        W 4727   5.018  33.427   2.967
51832W        W 4728  24.339  29.508   8.229
51833W        W 4729  17.483   2.105   1.093
51834W        W 4730  15.395  28.464   9.580
51835W        W 4731  25.434  28.742   0.438
51836W        W 4732  33.954  24.471   0.092
51837W        W 4733  31.196  28.698   2.030
51838W        W 4734  25.430   9.546   2.573
51839W        W 4735  16.832  16.421   0.845
51840W        W 4736  11.820  33.539   1.528
51841W        W 4737  34.768   6.994   9.372
51842W        W 4738   4.778  30.218   2.077
51843W        W 4739  12.890  27.157   0.177
51844W        W 4740  21.316   3.118   8.555
51845W        W 4741  15.194  26.052   2.103
51846W        W 4742  28.151  28.415   2.384
51847W        W 4743  21.705  21.733   2.824
51848W        W 4744  30.947   4.840   9.238
51849W        W 4745   0.198  32.700  10.281
51850W        W 4746  34.798   8.303   9.068
51851W        W 4747  30.077  33.711   1.588
51852W        W 4748  16.851  31.080   0.784
51853W        W 4749  16.535   4.199   8.732
51854W        W 4750   9.274   0.472   8.299
51855W        W 4751  29.057   7.979   0.299
51856W        W 4752   9.170  24.186   0.702
51857W        W 4753  16.033  13.595   0.284
51858W        W 4754   0.648  13.639   8.573
51859W        W 4755  29.108  28.859   8.482
51860W        W 4756  14.689  24.784   9.813
51861W        W 4757  34.404  23.930   1.249
51862W        W 4758  23.889  31.315   8.780
51863W        W 4759  15.809  22.154   8.216
51864W        W 4760  10.309  20.256   3.035
51865W        W 4761  12.545  21.246   0.835
51866W        W 4762   9.533  15.522   3.599
51867W        W 4763  11.629   0.370   7.502
51868W        W 4764  20.189   7.244   0.179
51869W        W 4765   3.123  34.224   2.821
51870W        W 4766   2.824   1.640   1.579
51871W        W 4767  35.978  32.802   9.340
51872W        W 4768  21.644   6.217   3.361
51873W        W 4769  17.578  27.445   7.928
51874W        W 4770  25.881  19.290   0.240
51875W        W 4771  25.123  27.622   2.092
51876W        W 4772   3.363  13.011   2.993
51877W        W 4773   9.908  14.665   8.876
51878W        W 4774  29.661   1.897   0.833
51879W        W 4775  13.261  15.736   8.866
51880W        W 4776  26.654  33.880  10.173
51881W        W 4777  21.020  10.139   2.207
51882W        W 4778  33.996  18.053   8.382
51883W        W 4779  20.352  20.879   0.648
51884W        W 4780  12.254  13.039   1.594
51885W        W 4781   3.180   9.228   3.356
51886W        W 4782  28.151  23.329   1.319
51887W        W 4783  16.792  31.237   8.090
51888W        W 4784  22.885  21.379   2.305
51889W        W 4785  18.646   7.066   9.309
51890W        W 4786  33.105  33.981   2.656
51891W        W 4787  20.585  29.180   2.374
51892W        W 4788  22.267  26.679   8.870
51893W        W 4789   3.385   3.879   7.628
51894W        W 4790  28.933  30.727   7.548
51895W        W 4791  31.987   9.541   9.901
51896W        W 4792  30.908  10.513   7.449
51897W        W 4793  16.327  32.704   1.767
51898W        W 4794  24.937  14.416   0.968
51899W        W 4795  15.932  22.633   2.716
51900W        W 4796  27.599  22.824   2.531
51901W        W 4797  20.958  25.688   9.157
51902W        W 4798  15.416  33.226   3.255
51903W        W 4799  16.574   7.406  10.206
51904W        W 4800  22.988   4.993   1.909
51905W        W 4801  29.501  33.650   3.390
51906W        W 4802   7.363  32.857   1.100
51907W        W 4803  15.941  16.931   0.929
51908W        W 4804  30.745  33.576   2.821
51909W        W 4805  27.773  10.757   2.585
51910W        W 4806  22.084  10.593   2.893
51911W        W 4807  32.987   8.372   8.420
51912W        W 4808  24.017  13.264   1.568
51913W        W 4809  11.264  16.879   0.246
51914W        W 4810  17.207  24.094   7.895
51915W        W 4811  27.509   1.299   9.631
51916W        W 4812  14.732  20.242   3.184
51917W        W 4813   7.868  31.087   2.920
51918W        W 4814  19.904   2.045   0.370
51919W        W 4815  33.322   4.404   0.867
51920W        W 4816   7.286  15.873   2.996
51921W        W 4817  19.366  33.226   9.559
51922W        W 4818  12.286  22.152   8.152
51923W        W 4819  33.161  30.374   9.299
51924W        W 4820  32.374  20.215   8.690
51925W        W 4821  24.138   1.855   7.873
51926W        W 4822  18.458  30.521   1.072
51927W        W 4823   4.481  32.589   9.860
51928W        W 4824  13.326  18.127   9.523
51929W        W 4825   0.437  13.025   7.624
51930W        W 4826  18.274  34.734   9.218
51931W        W 4827  18.119   9.997   9.901
51932W        W 4828  34.610  35.946   3.471
51933W        W 4829  15.233   9.777   2.322
51934W        W 4830   3.695  29.521   2.286
51935W        W 4831  10.314  29.040   8.737
51936W        W 4832   5.599  14.757   9.009
51937W        W 4833   3.554   8.183   9.046
51938W        W 4834  25.867  28.605   0.684
51939W        W 4835  29.974  16.480   9.191
51940W        W 4836  32.523  25.895   9.727
51941W        W 4837  16.796  16.741   9.086
51942W        W 4838  12.821  32.556   3.249
51943W        W 4839  28.019   6.791   2.299
51944W        W 4840   4.238   0.429   1.953
51945W        W 4841  29.527  13.076   2.010
51946W        W 4842  15.409  18.415   8.779
51947W        W 4843   9.756  13.031  10.025
51948W        W 4844  25.772  24.248   9.151
51949W        W 4845  22.974   4.945   0.960
51950W        W 4846  24.116   8.379   2.351
51951W        W 4847  29.394  15.014   2.123
51952W        W 4848   1.705  21.254   3.154
51953W        W 4849  19.687  24.368   1.253
51954W        W 4850  33.137   9.364   1.150
51955W        W 4851   7.012  34.788   9.641
51956W        W 4852   3.563  29.897   8.421
51957W        W 4853  33.296  23.490   7.969
51958W        W 4854  20.500  13.983   8.407
51959W        W 4855  32.447  12.866   1.818
51960W        W 4856  10.405  32.770   7.920
51961W        W 4857  29.229  13.577   9.383
51962W        W 4858  32.505  16.252   0.085
51963W        W 4859  25.741  31.841   3.061
51964W        W 4860  20.608  23.528   0.857
51965W        W 4861  14.801   7.118   0.026
51966W        W 4862  32.413  21.119   8.048
51967W        W 4863  17.284  20.753   8.906
51968W        W 4864  18.438  18.736   1.440
51969W        W 4865  16.268  12.952   8.311
51970W        W 4866   7.146   5.557   1.381
51971W        W 4867  22.496   5.614  10.163
51972W        W 4868  24.545  15.004  10.018
51973W        W 4869   5.900  32.174   8.039
51974W        W 4870  16.772   7.983   0.029
51975W        W 4871   9.829  30.968  10.007
51976W        W 4872  19.910  21.835  10.080
51977W        W 4873  33.858  12.037   2.448
51978W        W 4874   3.577  15.654   8.227
51979W        W 4875   9.079  29.890  10.079
51980W        W 4876  25.779  15.664   9.269
51981W        W 4877   8.813  30.913   9.054
51982W        W 4878  18.307  26.361   8.895
51983W        W 4879  24.516  14.981   8.978
51984W        W 4880  19.938  13.227   3.168
51985W        W 4881  15.939  15.699   2.818
51986W        W 4882  23.543   2.132   1.442
51987W        W 4883  15.432  15.587   1.129
51988W        W 4884  23.525  10.352   9.521
51989W        W 4885  19.837  24.385   0.314
51990W        W 4886  17.236   3.570   0.828
51991W        W 4887  30.056  20.831   0.504
51992W        W 4888  33.972  14.244   0.839
51993W        W 4889  21.755   7.807   8.350
51994W        W 4890  29.983  15.973   7.608
51995W        W 4891  29.732  30.265   2.858
51996W        W 4892  28.106  17.302   8.575
51997W        W 4893  15.783  23.733   1.580
51998W        W 4894  28.998  21.858   8.752
51999W        W 4895   3.467  34.852  10.257
52000W        W 4896   9.950   6.660  10.121
52001W        W 4897   8.703  33.131  10.267
52002W        W 4898   3.418  23.909   8.868
52003W        W 4899  10.350  23.516   0.339
52004W        W 4900  16.758  26.482   2.701
52005W        W 4901   0.306  25.796   2.070
52006W        W 4902   4.636   9.510   3.435
52007W        W 4903   1.064   2.555   1.081
52008W        W 4904  33.335  28.827   9.225
52009W        W 4905   6.285  11.120   2.502
52010W        W 4906   8.139  18.849   7.484
52011W        W 4907   8.972  22.477  10.116
52012W        W 4908  15.819  35.219   2.633
52013W        W 4909  16.569  35.266   8.774
52014W        W 4910  15.862  23.944   2.030
52015W        W 4911  23.315  30.506   7.615
52016W        W 4912  31.076   3.309   8.775
52017W        W 4913   4.533   5.704   8.037
52018W        W 4914  17.176   0.405   8.972
52019W        W 4915  28.534  22.570   9.322
52020W        W 4916  35.146  28.482   1.282
52021W        W 4917  12.606  18.064   8.639
52022W        W 4918  25.458  29.798   1.028
52023W        W 4919  33.797  24.220   2.269
52024W        W 4920  13.866  17.589   8.518
52025W        W 4921   6.022  24.389   9.874
52026W        W 4922  11.285  15.138   0.266
52027W        W 4923   2.926  28.154   0.485
52028W        W 4924   5.661  24.792   2.569
52029W        W 4925  34.696   0.032   9.290
52030W        W 4926  31.527  13.816   9.352
52031W        W 4927  29.743  15.346   9.613
52032W        W 4928   6.868  20.119   2.184
52033W        W 4929  35.339   9.501  10.205
52034W        W 4930   3.847  34.842   1.918
52035W        W 4931  14.698  17.505   1.992
52036W        W 4932  34.543  27.354   8.381
52037W        W 4933  29.908  31.399   7.497
52038W        W 4934   9.687  13.515   0.902
52039W        W 4935  32.167  13.149   8.688
52040W        W 4936  35.713  17.770   9.476
52041W        W 4937   1.252  29.122   0.398
52042W        W 4938   8.253   3.493   3.315
52043W        W 4939  21.212  24.116   2.762
52044W        W 4940  18.614  23.991   1.364
52045W        W 4941  16.661   6.684   8.410
52046W        W 4942  27.589  18.711   9.434
52047W        W 4943  16.465  13.432   1.873
52048W        W 4944  32.616   7.027   8.688
52049W        W 4945   5.743   4.239   9.397
52050W        W 4946   0.939   7.544   1.775
52051W        W 4947  15.461  28.560   1.347
52052W        W 4948  33.062  14.011   1.918
52053W        W 4949  32.672  35.846   0.221
52054W        W 4950  33.521  32.965  10.264
52055W        W 4951  14.740  19.114  10.160
52056W        W 4952   8.177  19.633   2.139
52057W        W 4953  11.742  16.551   0.417
52058W        W 4954  11.133  27.042   0.841
52059W        W 4955   6.385  31.112  10.109
52060W        W 4956  13.119  24.368   1.187
52061W        W 4957  22.945  22.747   7.396
52062W        W 4958  10.186  34.108   2.773
52063W        W 4959  23.769   3.904   7.275
52064W        W 4960  20.760  12.910   0.388
52065W        W 4961  10.672   2.972   0.920
52066W        W 4962  11.368  11.739   9.699
52067W        W 4963  14.856  19.385   3.598
52068W        W 4964   5.179  33.813   2.614
52069W        W 4965   7.640  32.360   2.478
52070W        W 4966   7.848  11.277   9.617
52071W        W 4967  30.708   8.546   9.468
52072W        W 4968  20.293  10.492   9.535
52073W        W 4969  34.877   5.334   1.291
52074W        W 4970   3.884   6.362   2.156
52075W        W 4971   9.982  28.632   6.519
52076W        W 4972  32.439  14.762  10.002
52077W        W 4973   2.591  11.013   2.995
52078W        W 4974  31.164  31.982   3.291
52079W        W 4975   5.124  14.601   9.162
52080W        W 4976  26.865  15.042   2.533
52081W        W 4977  21.881   5.988   9.111
52082W        W 4978  17.537  28.977   0.208
52083W        W 4979   6.136   6.189   8.834
52084W        W 4980  20.314  29.650   1.020
52085W        W 4981  26.591   0.032   2.907
52086W        W 4982  30.937   9.796   8.951
52087W        W 4983  18.131  10.424   0.478
52088W        W 4984  33.389  31.285   2.041
52089W        W 4985   2.717  13.912   9.960
52090W        W 4986  26.066  35.883  10.212
52091W        W 4987  19.611   6.501   1.044
52092W        W 4988   4.880  33.930   8.593
52093W        W 4989  23.891   7.623   9.562
52094W        W 4990  14.770  14.855   7.962
52095W        W 4991  35.033  15.612   2.331
52096W        W 4992  11.067  23.659   8.421
52097W        W 4993  33.514   4.674   7.308
52098W        W 4994   9.983  27.895   2.004
52099W        W 4995  29.137  27.658   0.561
52100W        W 4996  11.317  27.301   1.813
52101W        W 4997  28.077  21.076   0.328
52102W        W 4998   0.718   5.057   1.001
52103W        W 4999  11.568   4.118   9.390
52104W        W 5000  34.700  21.134   1.481
52105W        W 5001   0.067  31.782   3.088
52106W        W 5002   7.905  19.747   9.426
52107W        W 5003   3.118  34.918   0.941
52108W        W 5004  34.738   7.187   9.866
52109W        W 5005   1.607   5.579   3.367
52110W        W 5006  34.821  16.632   8.436
52111W        W 5007  27.467  24.422   7.376
52112W        W 5008  27.076  10.305  10.285
52113W        W 5009  28.216  23.470   7.080
52114W        W 5010  12.404  22.486   9.306
52115W        W 5011  11.713  26.071   9.619
52116W        W 5012   2.501  18.440   8.449
52117W        W 5013   2.958  33.817   7.267
52118W        W 5014  28.265  18.652   2.484
52119W        W 5015  18.114   6.954   2.272
52120W        W 5016   5.122   2.045   7.450
52121W        W 5017  15.663  31.963   2.608
52122W        W 5018   7.856  15.006   1.045
52123W        W 5019   4.406  24.720   9.587
52124W        W 5020   8.782   2.740   8.398
52125W        W 5021  30.440  16.221   8.328
52126W        W 5022  11.356  28.709   1.056
52127W        W 5023  11.429   1.448   9.627
52128W        W 5024  31.729  34.398   8.247
52129W        W 5025   2.039  24.418   4.061
52130W        W 5026  23.949  18.323  10.249
52131W        W 5027   5.669  17.434   2.818
52132W        W 5028  14.325  19.387   0.648
52133W        W 5029  20.791  16.189   7.883
52134W        W 5030   2.385  21.818   2.667
52135W        W 5031   4.951   0.560   3.039
52136W        W 5032  12.821  26.317   8.245
52137W        W 5033  29.469  18.882   8.112
52138W        W 5034  14.798  20.332   9.343
52139W        W 5035  26.638  35.876   0.601
52140W        W 5036  33.203  28.758  10.188
52141W        W 5037  31.949  10.024   9.201
52142W        W 5038  31.357   4.958   9.883
52143W        W 5039  14.494   4.857   1.447
52144W        W 5040   0.355   9.478   9.494
52145W        W 5041  12.628   4.310   0.261
52146W        W 5042  20.164  10.082   1.773
52147W        W 5043  33.978  23.663   1.990
52148W        W 5044  29.442   4.068   0.592
52149W        W 5045   6.943   3.079   0.592
52150W        W 5046  23.916  21.734   9.443
52151W        W 5047  36.012   1.694   0.264
52152W        W 5048  30.763  17.046   8.924
52153W        W 5049  17.276  19.399   2.531
52154W        W 5050   1.518  14.355   8.620
52155W        W 5051  17.348  16.802   9.327
52156W        W 5052  18.628  33.767   0.543
52157W        W 5053  11.077   6.013   8.669
52158W        W 5054  20.420  14.526   2.324
52159W        W 5055  10.344  10.110   7.384
52160W        W 5056  13.948   5.244   9.292
52161W        W 5057  31.774  33.769   0.525
52162W        W 5058  10.128  30.621   7.196
52163W        W 5059   3.505  23.766   3.300
52164W        W 5060  21.474   9.985   1.304
52165W        W 5061  20.863  33.971   1.228
52166W        W 5062   1.981  26.210   8.670
52167W        W 5063   2.147  35.123   2.636
52168W        W 5064   3.613  34.633   1.013
52169W        W 5065  30.932   9.097   9.402
52170W        W 5066   7.246   5.205   9.871
52171W        W 5067   1.665  23.034   8.163
52172W        W 5068  15.594   3.164   8.662
52173W        W 5069   3.777  35.141   0.253
52174W        W 5070  16.645  31.367   0.408
52175W        W 5071  21.537  19.075   0.296
52176W        W 5072  33.835  26.374   0.095
52177W        W 5073  14.279   5.524   7.960
52178W        W 5074  10.817  12.622   9.805
52179W        W 5075  14.388  35.845   2.442
52180W        W 5076   2.269  32.671   7.615
52181W        W 5077  33.637  16.762   8.165
52182W        W 5078  20.326   4.779  10.060
52183W        W 5079  11.981   4.288   1.878
52184W        W 5080  27.426   3.529   8.997
52185W        W 5081  13.967  27.524   1.265
52186W        W 5082  30.558   1.717   8.535
52187W        W 5083   2.632  31.479   0.168
52188W        W 5084  26.730   5.421   0.746
52189W        W 5085  15.852   3.606   1.239
52190W        W 5086  19.846   2.982   3.685
52191W        W 5087  32.962  26.659   3.483
52192W        W 5088  31.154   2.378   1.463
52193W        W 5089  24.028  23.512   2.370
52194W        W 5090  29.287  17.739   8.565
52195W        W 5091  29.553   5.311   2.014
52196W        W 5092  24.081  28.554   0.614
52197W        W 5093  29.510   8.100   8.194
52198W        W 5094  14.973  17.854   2.380
52199W        W 5095  11.549  29.519   1.701
52200W        W 5096  33.533  23.851   2.610
52201W        W 5097  21.948  27.558   0.886
52202W        W 5098  27.854   3.857   3.346
52203W        W 5099   2.057   2.541   2.505
52204W        W 5100  10.090  26.487   1.239
52205W        W 5101  18.468  27.713   1.580
52206W        W 5102   1.108  12.366   0.467
52207W        W 5103  12.088  31.423   0.220
52208W        W 5104  23.083  23.851   1.445
52209W        W 5105  16.809   3.192   9.224
52210W        W 5106   4.583   7.017   1.575
52211W        W 5107  29.760  29.809  10.021
52212W        W 5108   7.493  22.104   6.871
52213W        W 5109   6.934  19.624   0.774
52214W        W 5110   7.509  35.007   0.698
52215W        W 5111   5.761   3.372   0.964
52216W        W 5112   8.914  31.139   1.688
52217W        W 5113   3.741  21.478  10.075
52218W        W 5114  31.523  16.779   9.233
52219W        W 5115  25.553   2.438   1.865
52220W        W 5116  21.364   8.787  10.156
52221W        W 5117  26.383  12.047   7.247
52222W        W 5118  29.152   1.782   1.671
52223W        W 5119  24.855   1.676   0.097
52224W        W 5120  12.381  10.513   0.124
52225W        W 5121  15.747  33.989   0.087
52226W        W 5122   0.398  32.325   1.368
52227W        W 5123   9.065  15.223   8.146
52228W        W 5124  18.438  23.563   0.979
52229W        W 5125  15.393  35.918   8.088
52230W        W 5126  21.839  14.620   8.824
52231W        W 5127  32.477  20.189   9.998
52232W        W 5128  10.512   3.726   8.217
52233W        W 5129  19.418  19.933   7.796
52234W        W 5130  20.144  34.713   0.646
52235W        W 5131   9.923  15.850   9.948
52236W        W 5132  31.433  23.406   1.674
52237W        W 5133  35.424  15.410   1.304
52238W        W 5134  28.683  12.253   3.453
52239W        W 5135  27.223   5.354   0.775
52240W        W 5136   2.447  24.303   1.517
52241W        W 5137  22.211   3.074   8.468
52242W        W 5138  24.488  34.079   2.576
52243W        W 5139   6.627   0.973   2.137
52244W        W 5140  11.353  18.474   9.245
52245W        W 5141   2.857   8.697   8.707
52246W        W 5142  18.359   3.253   8.986
52247W        W 5143  16.140  23.251   8.572
52248W        W 5144  24.788  12.116   0.773
52249W        W 5145  18.911  21.941   9.136
52250W        W 5146  32.424   7.511   9.962
52251W        W 5147  13.978  11.995   1.256
52252W        W 5148  35.983  23.192   1.546
52253W        W 5149  35.511   6.861   0.393
52254W        W 5150  18.397   2.902   8.357
52255W        W 5151   1.118  16.434   0.666
52256W        W 5152   6.260  32.420   9.328
52257W        W 5153   4.281   6.888   0.224
52258W        W 5154  28.643  11.137   2.657
52259W        W 5155   1.547   5.119   1.247
52260W        W 5156  19.566  35.208   1.839
52261W        W 5157   5.967   4.728   7.639
52262W        W 5158   3.609  29.029   8.106
52263W        W 5159  13.321  27.716   8.391
52264W        W 5160   5.586  30.351  10.134
52265W        W 5161  14.475   3.875   8.687
52266W        W 5162   0.481  16.239   8.393
52267W        W 5163  11.114  11.034   2.922
52268W        W 5164  11.453  20.321   7.323
52269W        W 5165  22.124  17.734   3.513
52270W        W 5166  19.771   9.799   8.604
52271W        W 5167  18.974  22.981   8.303
52272W        W 5168  34.255   7.274   2.419
52273W        W 5169  14.776  30.096   8.486
52274W        W 5170  26.451  15.890   3.064
52275W        W 5171   7.324  15.349   9.307
52276W        W 5172  28.658  15.498   0.008
52277W        W 5173  30.633   6.040  10.049
52278W        W 5174  23.870  33.990   1.582
52279W        W 5175  32.522  10.844   7.939
52280W        W 5176  19.728   2.172   2.176
52281W        W 5177  27.606  11.831   1.678
52282W        W 5178  13.451  27.600   1.541
52283W        W 5179  34.028  28.223   1.011
52284W        W 5180  29.356  29.793   0.031
52285W        W 5181  16.826   1.172   7.976
52286W        W 5182  24.625  35.422   9.355
52287W        W 5183  29.174  13.238   9.808
52288W        W 5184   5.152  15.382   2.378
52289W        W 5185  17.944  27.708   0.828
52290W        W 5186   3.494  10.400   0.635
52291W        W 5187  20.854   7.610   8.164
52292W        W 5188  25.464  11.825   0.506
52293W        W 5189   1.019  31.007   3.808
52294W        W 5190  31.231  18.261   8.146
52295W        W 5191   9.858  15.368  10.177
52296W        W 5192   3.665  18.421   0.375
52297W        W 5193  24.550  33.483   0.989
52298W        W 5194  24.826  28.084   1.072
52299W        W 5195  26.187   8.483   3.610
52300W        W 5196  25.146   2.129   3.161
52301W        W 5197  22.443  26.256   2.073
52302W        W 5198  15.874  17.354   0.693
52303W        W 5199  23.368   2.614   0.660
52304W        W 5200   2.898  11.606   1.425
52305W        W 5201  27.885  32.912   7.284
52306W        W 5202  26.331  13.001   9.871
52307W        W 5203  25.437  26.407   1.685
52308W        W 5204  34.860   9.392   9.173
52309W        W 5205  27.666  29.901   9.129
52310W        W 5206  17.301   2.734   8.349
52311W        W 5207  12.985  19.426   1.378
52312W        W 5208  33.556   0.003   1.758
52313W        W 5209  35.439   3.135   0.360
52314W        W 5210  27.066   8.970   0.287
52315W        W 5211  22.856  25.749   0.234
52316W        W 5212   1.694   8.105   1.910
52317W        W 5213  10.645  21.196  10.066
52318W        W 5214  14.394   3.888   1.483
52319W        W 5215   0.117  30.032   1.314
52320W        W 5216  14.612  16.251   2.589
52321W        W 5217  30.056  26.207   7.994
52322W        W 5218   0.753  23.926   2.073
52323W        W 5219   1.653  22.737   9.817
52324W        W 5220  21.187  12.692   0.143
52325W        W 5221   4.856  28.315   2.343
52326W        W 5222  14.566  27.665   8.670
52327W        W 5223  23.371  32.599  10.098
52328W        W 5224  19.996  27.067   0.072
52329W        W 5225  17.058   2.792   2.205
52330W        W 5226  22.764   3.599   2.972
52331W        W 5227  31.001  20.143   7.554
52332W        W 5228   1.751  10.107   1.088
52333W        W 5229  14.818  29.964   9.315
52334W        W 5230  31.508  27.509   1.815
52335W        W 5231  30.368  23.890   8.520
52336W        W 5232   4.465  33.088   2.205
52337W        W 5233   8.637  31.700   8.087
52338W        W 5234  29.929   0.757   1.577
52339W        W 5235  35.420  18.309   8.574
52340W        W 5236  31.457   8.690   1.837
52341W        W 5237  30.344   3.437   8.390
52342W        W 5238  13.298  17.469   9.742
52343W        W 5239  35.671  16.421   9.176
52344W        W 5240  13.910  26.068   1.907
52345W        W 5241  25.751  21.378   0.554
52346W        W 5242   1.482  19.982   2.906
52347W        W 5243  25.030  16.260   9.076
52348W        W 5244   1.451  23.559   1.961
52349W        W 5245  14.148  17.197   8.914
52350W        W 5246   0.242   4.975   1.880
52351W        W 5247   5.637  33.892   1.556
52352W        W 5248   0.443  14.638   0.808
52353W        W 5249   3.923   5.410   1.320
52354W        W 5250   8.280  12.022   3.371
52355W        W 5251   0.889  20.469  10.251
52356W        W 5252  30.492  17.412   1.087
52357W        W 5253   6.001  12.963   3.202
52358W        W 5254  15.891  34.187   2.788
52359W        W 5255  19.363  16.217   1.601
52360W        W 5256  28.959  12.134  10.294
52361W        W 5257  16.245  21.073   0.280
52362W        W 5258  14.990   1.609   0.368
52363W        W 5259   4.251  30.985   8.668
52364W        W 5260  23.928  20.704   2.722
52365W        W 5261  21.453  28.164   0.500
52366W        W 5262  29.434   7.192   7.813
52367W        W 5263   3.561   6.220   0.150
52368W        W 5264   9.491   9.605   9.177
52369W        W 5265  27.667  23.549   0.125
52370W        W 5266  13.363  21.979   9.606
52371W        W 5267   3.448  34.194   9.833
52372W        W 5268  14.018  16.220   9.075
52373W        W 5269  32.872  12.417   0.875
52374W        W 5270   0.934   5.190   7.222
52375W        W 5271  21.666  17.347   9.674
52376W        W 5272  21.225  22.230   9.884
52377W        W 5273  31.873  35.218   0.405
52378W        W 5274  15.848   7.500   2.312
52379W        W 5275   3.932  13.639   3.365
52380W        W 5276  31.047  27.140   0.983
52381W        W 5277  35.724  18.931   0.182
52382W        W 5278  35.683   4.957   1.756
52383W        W 5279  18.741   4.673   8.790
52384W        W 5280  10.462   3.367   8.625
52385W        W 5281  19.947   5.017   9.321
52386W        W 5282   0.101  25.234   9.411
52387W        W 5283  19.905  10.262   0.146
52388W        W 5284  34.115   6.178   0.959
52389W        W 5285   2.409  16.232   2.129
52390W        W 5286  16.615  21.513   9.724
52391W        W 5287  28.228  17.218   1.130
52392W        W 5288  17.491  33.054   8.243
52393W        W 5289   5.296   9.127   7.257
52394W        W 5290   1.504   8.073   1.438
52395W        W 5291   8.518  28.776   9.076
52396W        W 5292   2.309  32.946   1.280
52397W        W 5293  29.887   1.240   8.094
52398W        W 5294   0.391  11.231   8.303
52399W        W 5295  23.634  13.043   9.057
52400W        W 5296   1.044  30.957   7.460
52401W        W 5297  12.677  30.863   8.462
52402W        W 5298   5.090  13.633   8.237
52403W        W 5299  28.195  13.842   8.990
52404W        W 5300  20.547   2.337   9.455
52405W        W 5301  21.244  29.730   9.870
52406W        W 5302  13.466  35.999   8.089
52407W        W 5303  13.058  24.574   3.442
52408W        W 5304  11.583  33.108   9.022
52409W        W 5305  29.528  17.405   2.315
52410W        W 5306   6.290  10.462   8.534
52411W        W 5307  19.721  14.102   2.833
52412W        W 5308  33.192   8.453   0.612
52413W        W 5309  22.516   1.754   1.157
52414W        W 5310   9.673  31.364   0.050
52415W        W 5311  10.883  14.897   1.625
52416W        W 5312  26.771  31.115   9.177
52417W        W 5313   7.900  23.965  10.177
52418W        W 5314  29.184  18.492  10.165
52419W        W 5315  14.304  31.990   2.041
52420W        W 5316  22.027  28.117   8.531
52421W        W 5317   6.132   1.838   9.426
52422W        W 5318   7.349  13.157   9.495
52423W        W 5319  32.832   0.309   8.674
52424W        W 5320   7.513  26.842   1.837
52425W        W 5321  30.012  23.717   1.948
52426W        W 5322  20.110   0.916   2.521
52427W        W 5323   6.246  35.538   2.652
52428W        W 5324  28.526  30.380   9.597
52429W        W 5325  29.032  30.381   1.595
52430W        W 5326  23.505   0.723   8.315
52431W        W 5327  29.697   8.109   1.862
52432W        W 5328  18.718   3.551   3.358
52433W        W 5329  22.419   2.641   0.440
52434W        W 5330  17.590  16.004   1.384
52435W        W 5331  20.531  35.126   8.811
52436W        W 5332  11.497  28.400   0.531
52437W        W 5333  25.549  21.173   9.547
52438W        W 5334  16.261   4.770   3.040
52439W        W 5335   3.741  31.916   2.378
52440W        W 5336   5.715  27.054   2.175
52441W        W 5337  16.190  24.714   3.525
52442W        W 5338  18.545   9.913   9.657
52443W        W 5339   3.414  16.799   0.438
52444W        W 5340  35.493  21.798   9.469
52445W        W 5341  23.214  29.606   2.087
52446W        W 5342  35.897  12.603   0.120
52447W        W 5343  17.735   4.184   2.899
52448W        W 5344   0.775  10.704   1.810
52449W        W 5345  20.083   0.668   2.015
52450W        W 5346  12.555  13.492   1.702
52451W        W 5347  30.135  24.524   3.314
52452W        W 5348  17.227  17.974   9.405
52453W        W 5349  20.187  14.037   7.454
52454W        W 5350  26.708  12.894   0.553
52455W        W 5351   2.522  28.340   9.437
52456W        W 5352  35.933  20.642   1.365
52457W        W 5353  30.870  15.388   1.715
52458W        W 5354  11.411  10.781   9.143
52459W        W 5355   0.037  22.492   3.186
52460W        W 5356   8.112   7.910   8.519
52461W        W 5357  32.092  26.302   8.733
52462W        W 5358  12.557  26.788   3.646
52463W        W 5359   9.786  32.582   3.571
52464W        W 5360  24.867  28.197   7.729
52465W        W 5361  27.662  22.963   9.191
52466W        W 5362  34.358   8.609   8.927
52467W        W 5363   8.616   5.685   1.770
52468W        W 5364  33.377  29.270   8.645
52469W        W 5365  24.843   0.852   2.954
52470W        W 5366   2.699   4.642   0.848
52471W        W 5367  21.584  14.928   9.657
52472W        W 5368  25.019   2.758   0.211
52473W        W 5369   0.035  20.589   0.426
52474W        W 5370   4.280  34.936   8.867
52475W        W 5371  34.258  33.349   7.906
52476W        W 5372  17.696  31.332   8.504
52477W        W 5373  25.899   7.909   8.135
52478W        W 5374  10.523  19.125   2.304
52479W        W 5375   5.738  30.635   8.225
52480W        W 5376   8.164  34.607   8.467
52481W        W 5377  22.686  15.879   1.541
52482W        W 5378   5.814  34.401   0.397
52483W        W 5379   9.327  31.554   7.850
52484W        W 5380   4.624  12.466   1.435
52485W        W 5381  24.912  18.780   0.505
52486W        W 5382  12.883  15.922   0.339
52487W        W 5383   9.889  16.742   7.807
52488W        W 5384   4.327  34.452   7.780
52489W        W 5385  17.763  30.847   8.524
52490W        W 5386  18.616  31.611   8.377
52491W        W 5387  10.156  26.433   8.619
52492W        W 5388  27.412  16.774   7.493
52493W        W 5389  23.038  26.948   0.649
52494W        W 5390  35.003  10.771   1.677
52495W        W 5391   6.503   2.816   2.525
52496W        W 5392  17.434   4.317  10.165
52497W        W 5393   8.398  28.743   1.121
52498W        W 5394  33.378  11.806   3.524
52499W        W 5395  31.373   5.034   3.301
52500W        W 5396   2.638  16.967   8.387
52501W        W 5397  13.168  32.469   0.225
52502W        W 5398   4.242  26.377   9.577
52503W        W 5399   8.383  22.800   8.398
52504W        W 5400  17.499  25.429   7.711
52505W        W 5401  29.639  11.789   1.355
52506W        W 5402  26.148   7.821  10.000
52507W        W 5403  17.992  10.393   3.109
52508W        W 5404  13.365  18.655   0.324
52509W        W 5405   2.896  28.685   9.379
52510W        W 5406  21.667   3.607   1.981
52511W        W 5407  12.438   4.384   9.446
52512W        W 5408   5.431   4.385   9.736
52513W        W 5409  12.470  34.414   8.733
52514W        W 5410   6.765  28.518   2.893
52515W        W 5411   3.400  19.264   9.755
52516W        W 5412  22.202   0.641   9.762
52517W        W 5413  32.658  19.956   8.187
52518W        W 5414  21.550  27.125   0.320
52519W        W 5415  20.472   3.707   8.644
52520W        W 5416  12.067  12.296   8.505
52521W        W 5417   7.388  28.516   9.429
52522W        W 5418  21.164  32.850  10.173
52523W        W 5419  27.084  15.570   8.652
52524W        W 5420  17.557  16.001  10.049
52525W        W 5421   5.522  26.713   0.812
52526W        W 5422   3.689   6.686   1.795
52527W        W 5423  12.454  33.712   0.340
52528W        W 5424   6.232   3.380   8.059
52529W        W 5425  28.144   0.938   2.183
52530W        W 5426  32.610   1.029   9.158
52531W        W 5427  35.593  19.749   2.586
52532W        W 5428  28.495  10.464   3.212
52533W        W 5429   5.647   0.927   9.977
52534W        W 5430   5.216  22.149   8.861
52535W        W 5431  11.365  25.179   9.519
52536W        W 5432  26.177   8.197   9.664
52537W        W 5433  11.206   2.843   1.592
52538W        W 5434  26.447  19.819  10.333
52539W        W 5435  16.338  31.207   2.269
52540W        W 5436  32.996  33.966   8.891
52541W        W 5437  22.967   9.998   9.877
52542W        W 5438  14.630  10.086   8.803
52543W        W 5439  19.773  23.326   8.519
52544W        W 5440  31.536  22.107   9.505
52545W        W 5441  31.606  27.065   7.467
52546W        W 5442   3.576   0.011   8.914
52547W        W 5443   6.365  27.106   9.562
52548W        W 5444  32.376   9.267   1.839
52549W        W 5445  19.855  26.887   1.601
52550W        W 5446  25.092  13.889  10.260
52551W        W 5447  30.716  14.827   7.294
52552W        W 5448  28.357  29.938   9.197
52553W        W 5449  30.946  11.384   7.712
52554W        W 5450   9.294  13.708   9.692
52555W        W 5451  22.050  26.096   7.361
52556W        W 5452   0.765   6.169   2.270
52557W        W 5453   2.984   7.400   9.239
52558W        W 5454  25.221  35.333   0.313
52559W        W 5455   5.769  22.312   9.060
52560W        W 5456  17.362  31.385   3.724
52561W        W 5457   0.918   9.373   1.157
52562W        W 5458   2.816   2.254   8.386
52563W        W 5459  12.062   5.590   2.899
52564W        W 5460  32.473  32.496   0.126
52565W        W 5461  31.923   7.419   2.356
52566W        W 5462  12.673  20.800   9.503
52567W        W 5463  11.093  35.662   7.301
52568W        W 5464  32.945  33.080   9.745
52569W        W 5465  12.393   3.054   8.175
52570W        W 5466  25.212   3.021   8.488
52571W        W 5467  17.334   8.407   9.535
52572W        W 5468  14.525  33.143   2.963
52573W        W 5469  17.176  35.040   9.546
52574W        W 5470   4.723  21.227   9.684
52575W        W 5471   3.266  28.661   8.111
52576W        W 5472  11.477  15.704   2.895
52577W        W 5473   3.301  18.435   9.752
52578W        W 5474  21.661  32.827   2.569
52579W        W 5475  16.612   2.508   2.043
52580W        W 5476  14.775  20.802   9.463
52581W        W 5477  35.155  12.259   0.930
52582W        W 5478  29.267   8.391   9.838
52583W        W 5479  34.121   6.388   7.363
52584W        W 5480  25.024   2.755  10.059
52585W        W 5481   6.033  18.461   2.081
52586W        W 5482  35.175  19.869   3.949
52587W        W 5483  14.792  17.565   8.294
52588W        W 5484  10.096   5.078   1.970
52589W        W 5485   7.322   3.382   8.315
52590W        W 5486  31.834  23.529   8.172
52591W        W 5487  19.843  16.395   1.815
52592W        W 5488   6.880  16.565   9.414
52593W        W 5489  25.740  26.127   1.470
52594W        W 5490  25.851  30.612   2.686
52595W        W 5491  16.952  11.285   8.593
52596W        W 5492  32.249  25.600   9.520
52597W        W 5493  14.268   3.088  10.229
52598W        W 5494  30.991   0.889   0.266
52599W        W 5495   8.640  24.549   8.680
52600W        W 5496   9.268  12.247   0.517
52601W        W 5497   9.044  15.538   0.148
52602W        W 5498  35.397   0.027   0.362
52603W        W 5499   0.359   6.564   2.652
52604W        W 5500   0.421  19.022   9.046
52605W        W 5501  15.973  25.117   0.700
52606W        W 5502  14.967  13.831   7.712
52607W        W 5503  29.497  34.632   0.715
52608W        W 5504   2.874  34.107   9.827
52609W        W 5505  28.259  26.954   0.408
52610W        W 5506  28.614   2.998   0.714
52611W        W 5507   8.825  24.724   3.014
52612W        W 5508  33.080   5.668   9.752
52613W        W 5509  34.274   1.247   7.293
52614W        W 5510  25.676  32.086   9.028
52615W        W 5511  21.586  13.760   2.633
52616W        W 5512  24.394  23.254   2.570
52617W        W 5513  24.228  18.040   2.607
52618W        W 5514   6.226   5.602   0.761
52619W        W 5515  13.103  25.748   2.437
52620W        W 5516   7.984   7.522   1.669
52621W        W 5517  29.649  28.825   8.870
52622W        W 5518  31.423  19.291   2.601
52623W        W 5519  13.523   2.183   2.513
52624W        W 5520  23.455   0.923   0.170
52625W        W 5521  17.270  15.324   9.012
52626W        W 5522  25.152  12.965   0.638
52627W        W 5523  18.845   6.640   8.132
52628W        W 5524  34.456  18.338   0.646
52629W        W 5525  35.467  33.832   1.172
52630W        W 5526  29.384  35.389   2.153
52631W        W 5527  35.090  13.225   2.963
52632W        W 5528   2.879  22.925   9.040
52633W        W 5529  20.781  17.583   9.368
52634W        W 5530  30.390  25.337   2.269
52635W        W 5531  25.734  24.516   8.707
52636W        W 5532  22.232  32.199   9.374
52637W        W 5533  24.704  10.494   1.071
52638W        W 5534  15.911   5.312   9.608
52639W        W 5535  17.817  10.884   7.699
52640W        W 5536  25.802  12.113   8.916
52641W        W 5537  21.414  34.474   9.055
52642W        W 5538  10.856  26.124   6.701
52643W        W 5539  17.418   0.701   3.160
52644W        W 5540  19.929  22.795   0.545
52645W        W 5541  14.130   3.361   2.096
52646W        W 5542  23.639   8.983   8.576
52647W        W 5543  29.509   3.065   8.486
52648W        W 5544  17.616   3.033  10.318
52649W        W 5545  31.048   1.320  10.255
52650W        W 5546   7.296  18.029   2.318
52651W        W 5547  11.882  30.985   2.716
52652W        W 5548  32.520  25.605   4.063
52653W        W 5549  20.599  11.736   1.829
52654W        W 5550   7.926  13.641   1.324
52655W        W 5551  12.368  11.474   1.237
52656W        W 5552   5.996   1.268   1.221
52657W        W 5553   1.236   1.646   3.030
52658W        W 5554  33.740   7.678   0.621
52659W        W 5555   0.351  27.623   7.222
52660W        W 5556  25.259   7.498   7.388
52661W        W 5557  32.854  10.839   8.740
52662W        W 5558  11.361  32.271  10.045
52663W        W 5559  29.328  16.366   3.254
52664W        W 5560  31.959  14.428   8.990
52665W        W 5561   2.171   7.896   9.284
52666W        W 5562  16.985  30.570   2.127
52667W        W 5563  33.478   2.785   9.207
52668W        W 5564  22.205  18.381   1.760
52669W        W 5565  10.493   3.586   2.634
52670W        W 5566  32.491  20.298   0.151
52671W        W 5567  29.025  23.009   7.603
52672W        W 5568  10.609   8.669   8.641
52673W        W 5569  31.222  31.347   3.000
52674W        W 5570  19.208   9.495   9.771
52675W        W 5571   5.919   4.375   7.239
52676W        W 5572  26.626  29.833   0.645
52677W        W 5573  24.238   4.582   9.002
52678W        W 5574  15.985  21.095   3.980
52679W        W 5575  23.154  27.567   9.246
52680W        W 5576  15.875   2.390   9.178
52681W        W 5577  13.309  18.288   2.690
52682W        W 5578  12.084  29.444   1.934
52683W        W 5579  14.210  35.489   8.114
52684W        W 5580  14.874  25.920   7.876
52685W        W 5581  11.285   5.820   1.361
52686W        W 5582  15.063  12.373   2.980
52687W        W 5583  25.965   4.273   2.209
52688W        W 5584  29.346  25.220   1.636
52689W        W 5585  17.806  26.808   0.717
52690W        W 5586  35.209  34.737   2.132
52691W        W 5587  24.005  10.000   0.899
52692W        W 5588  29.406  14.059   8.392
52693W        W 5589  30.800   4.568   9.789
52694W        W 5590   4.895  30.371   8.318
52695W        W 5591   2.509  29.118   0.853
52696W        W 5592  15.279  31.993   2.963
52697W        W 5593   4.429  29.257   9.036
52698W        W 5594  19.226   4.514   9.136
52699W        W 5595  16.387  25.140   8.216
52700W        W 5596   1.785  15.714   0.405
52701W        W 5597  28.628  13.320   2.237
52702W        W 5598  21.163  25.604   2.429
52703W        W 5599   9.622  15.549   9.586
52704W        W 5600  33.329   5.598  10.198
52705W        W 5601   9.778  20.897   2.681
52706W        W 5602  20.565  10.101   9.727
52707W        W 5603   0.101   1.691   7.335
52708W        W 5604  35.362   2.566   9.838
52709W        W 5605  31.859  28.224   0.545
52710W        W 5606  33.840   9.190   2.485
52711W        W 5607  28.355   2.086   0.259
52712W        W 5608  25.419  17.307   8.232
52713W        W 5609  15.289   2.628   1.303
52714W        W 5610  15.854  17.004  10.313
52715W        W 5611  14.895   0.004   9.179
52716W        W 5612   7.289  33.881   1.507
52717W        W 5613  29.941  24.948   1.452
52718W        W 5614   7.369   9.671   7.575
52719W        W 5615  12.642  20.462   3.081
52720W        W 5616  26.282  28.273   2.704
52721W        W 5617  31.324   4.866   7.589
52722W        W 5618  21.715  10.505   2.082
52723W        W 5619  20.793  34.380   8.415
52724W        W 5620  16.243   6.352   8.230
52725W        W 5621   0.388   5.475   9.303
52726W        W 5622  10.740  15.128   8.773
52727W        W 5623  23.576  10.576   1.745
52728W        W 5624  30.130  27.127   0.434
52729W        W 5625  18.180  35.292  10.330
52730W        W 5626  32.865  34.184   3.669
52731W        W 5627  30.278  31.251   9.885
52732W        W 5628  11.836  28.720   0.205
52733W        W 5629   2.980   0.929   0.232
52734W        W 5630  15.332  34.813   2.457
52735W        W 5631  30.663  20.972   1.507
52736W        W 5632  33.543   5.825   2.301
52737W        W 5633  31.649  10.063   0.441
52738W        W 5634   8.251  21.102   0.141
52739W        W 5635  21.730   2.407   9.049
52740W        W 5636  31.984   4.218   2.318
52741W        W 5637  35.367  27.495   8.048
52742W        W 5638  34.380  30.930   9.468
52743W        W 5639   6.210   6.196   2.110
52744W        W 5640  31.014   7.573   2.336
52745W        W 5641  14.454  31.433   0.431
52746W        W 5642  32.036   4.451   0.302
52747W        W 5643  22.880  19.934   2.998
52748W        W 5644  31.466  21.300  10.036
52749W        W 5645  20.892  35.302   9.462
52750W        W 5646  20.050  12.058  10.274
52751W        W 5647   4.090  24.540   9.242
52752W        W 5648  13.462   9.866   0.279
52753W        W 5649  31.018  22.697   1.326
52754W        W 5650  12.927  14.311   9.037
52755W        W 5651  32.957   9.520   8.356
52756W        W 5652  11.112   4.063   9.149
52757W        W 5653  25.005   3.428   0.870
52758W        W 5654  28.953  20.109   2.720
52759W        W 5655  24.290   0.280   7.383
52760W        W 5656   6.413  15.779   1.577
52761W        W 5657  34.367  35.732   7.991
52762W        W 5658  12.769  21.345   2.095
52763W        W 5659  17.190  16.576   3.124
52764W        W 5660  23.127  17.105   1.768
52765W        W 5661  22.361   9.269   1.654
52766W        W 5662  11.680  29.272   8.682
52767W        W 5663  18.303  30.611   3.471
52768W        W 5664  25.769  35.495   8.024
52769W        W 5665   2.999  24.197   1.721
52770W        W 5666  18.660  11.381   9.406
52771W        W 5667  19.849  14.392   8.328
52772W        W 5668  13.414   8.465   3.028
52773W        W 5669  27.327  16.716  10.098
52774W        W 5670   4.871  32.734   9.428
52775W        W 5671  24.690  23.783   8.717
52776W        W 5672  15.794   1.167   0.795
52777W        W 5673  31.921   9.452   7.917
52778W        W 5674  14.575  33.843   1.605
52779W        W 5675   3.323  18.415   0.796
52780W        W 5676  19.271   0.049   8.027
52781W        W 5677  17.741  30.599   0.976
52782W        W 5678  33.355  14.676   9.733
52783W        W 5679   0.106  24.949   1.646
52784W        W 5680  16.669   0.103   8.316
52785W        W 5681   2.920  12.681   9.654
52786W        W 5682  33.800  25.499   0.279
52787W        W 5683  33.104   2.138   8.392
52788W        W 5684  11.295   2.102   3.056
52789W        W 5685  28.575  20.820   2.351
52790W        W 5686  35.767  25.699   3.400
52791W        W 5687  27.522  22.028  10.208
52792W        W 5688  15.696  13.697   2.743
52793W        W 5689  30.958  25.645   2.707
52794W        W 5690  30.619  16.743   8.008
52795W        W 5691  17.551   1.735   3.298
52796W        W 5692  18.272  19.780   8.210
52797W        W 5693  10.918  18.442  10.123
52798W        W 5694  21.519   8.660   7.226
52799W        W 5695   9.466  20.830   1.593
52800W        W 5696  10.893   7.631   9.415
52801W        W 5697   7.520  31.235   1.451
52802W        W 5698   3.325  20.650   9.387
52803W        W 5699  21.543  24.456   3.890
52804W        W 5700  30.769  10.353   2.252
52805W        W 5701   9.366   5.814   0.608
52806W        W 5702  12.739  22.091   7.893
52807W        W 5703  12.202  21.048   9.522
52808W        W 5704  29.527   5.415  10.058
52809W        W 5705  17.628  23.201   0.651
52810W        W 5706  26.871   6.579   2.619
52811W        W 5707  30.723  20.117   8.087
52812W        W 5708  31.990  33.360   8.250
52813W        W 5709  17.411  30.089   3.271
52814W        W 5710   5.002  25.278   9.176
52815W        W 5711  19.280  33.664   1.894
52816W        W 5712  27.033  19.696   1.790
52817W        W 5713  13.458  30.735   2.348
52818W        W 5714  10.661   5.331   8.793
52819W        W 5715  12.953  16.916  10.184
52820W        W 5716  13.328   4.328   1.627
52821W        W 5717  16.474  15.540  10.012
52822W        W 5718  27.374  24.752   7.743
52823W        W 5719  19.640  16.987  10.189
52824W        W 5720  15.030  32.195   9.750
52825W        W 5721  30.234  29.517   9.588
52826W        W 5722  33.914  17.953   0.152
52827W        W 5723   7.347  32.855   9.423
52828W        W 5724   7.437   2.121   0.668
52829W        W 5725  17.380  26.923   0.567
52830W        W 5726  32.345  26.669   1.024
52831W        W 5727  24.107  34.926   1.230
52832W        W 5728  35.982  33.547   8.884
52833W        W 5729  32.771  20.333   3.719
52834W        W 5730   4.316   9.414   1.399
52835W        W 5731   2.936  19.787   0.798
52836W        W 5732  16.727  27.263   0.535
52837W        W 5733   3.968  14.524   0.660
52838W        W 5734   4.484  24.687   2.469
52839W        W 5735   5.533  18.063   9.631
52840W        W 5736   0.960  11.660   1.890
52841W        W 5737  28.181   6.977   0.178
52842W        W 5738   8.223  21.632   3.043
52843W        W 5739   5.033  34.031   0.284
52844W        W 5740  33.417  23.214   0.373
52845W        W 5741  20.163  23.910   1.515
52846W        W 5742  35.887  25.091   8.592
52847W        W 5743  11.381   6.464   1.616
52848W        W 5744   6.772  12.392   3.333
52849W        W 5745  28.730   4.117   8.669
52850W        W 5746   7.137  21.923  10.051
52851W        W 5747   6.219  23.286   3.352
52852W        W 5748  26.277  16.337   2.215
52853W        W 5749   3.177  21.246   2.678
52854W        W 5750  15.603  13.289   8.196
52855W        W 5751  12.430  34.451   8.239
52856W        W 5752   7.744  15.720   2.851
52857W        W 5753   8.653  10.377   7.351
52858W        W 5754  16.415   5.708   9.511
52859W        W 5755  11.821   2.709   9.886
52860W        W 5756  17.892  31.960   0.693
52861W        W 5757  15.793   8.832   0.132
52862W        W 5758  35.543  30.515   3.124
52863W        W 5759  34.434   4.263   9.681
52864W        W 5760  34.200  23.936   2.386
52865W        W 5761  35.010   6.821  10.178
52866W        W 5762   3.056  11.810   8.194
52867W        W 5763  16.798  31.790   9.373
52868W        W 5764  34.881  26.756   9.422
52869W        W 5765  16.102  31.595   0.185
52870W        W 5766  11.484  21.442   9.133
52871W        W 5767   0.799   4.466   0.891
52872W        W 5768  23.230   8.011   2.117
52873W        W 5769  25.850  19.736   3.497
52874W        W 5770   3.124  25.291   2.939
52875W        W 5771  29.721  18.648   8.956
52876W        W 5772   9.129  23.829   7.738
52877W        W 5773   2.235  26.514   3.398
52878W        W 5774  17.822   4.681   1.128
52879W        W 5775  31.388  27.213   7.922
52880W        W 5776  17.432  15.424   8.157
52881W        W 5777  10.650   6.879   2.068
52882W        W 5778  25.702   3.508   7.740
52883W        W 5779  35.661  31.631   2.185
52884W        W 5780  19.885  28.443   7.041
52885W        W 5781  18.273   4.105   2.214
52886W        W 5782  16.539   3.851   2.243
52887W        W 5783  22.563  20.509   3.468
52888W        W 5784   7.029   1.560   8.956
52889W        W 5785  26.460  33.135   8.676
52890W        W 5786  18.429  32.835   2.171
52891W        W 5787  28.659   3.399   0.434
52892W        W 5788  11.242  23.446   2.556
52893W        W 5789  22.278  22.314   2.203
52894W        W 5790  18.409  24.127   9.768
52895W        W 5791  35.792  30.504   2.601
52896W        W 5792   4.406  11.184   0.533
52897W        W 5793   6.610  19.171   1.877
52898W        W 5794  12.930  15.389   1.071
52899W        W 5795  24.825  10.541   0.551
52900W        W 5796  35.426  12.141   8.194
52901W        W 5797  33.641  11.724   7.495
52902W        W 5798  34.513   1.713   7.360
52903W        W 5799  26.920  16.748   7.775
52904W        W 5800  15.864  25.781   1.388
52905W        W 5801   8.643  31.868   2.077
52906W        W 5802  20.674  21.950   3.466
52907W        W 5803  12.104  24.712  10.008
52908W        W 5804  19.504  19.657   0.940
52909W        W 5805  24.871  12.187   9.644
52910W        W 5806  14.142  23.018   0.460
52911W        W 5807  21.043  21.273   7.891
52912W        W 5808  35.516  21.865   7.759
52913W        W 5809  10.211   7.570   8.013
52914W        W 5810  24.698  27.364  10.033
52915W        W 5811   5.758  20.200   2.431
52916W        W 5812  33.481   0.397   3.100
52917W        W 5813   3.474  34.634   2.807
52918W        W 5814  22.326  12.295   9.386
52919W        W 5815  16.827  33.030   0.149
52920W        W 5816  33.752  30.190   0.249
52921W        W 5817  19.562   2.193   0.029
52922W        W 5818  22.120   9.482   9.804
52923W        W 5819  22.724  14.616   7.645
52924W        W 5820  28.592   6.596   8.176
52925W        W 5821  34.488  18.873   4.161
52926W        W 5822   6.291  29.207   2.174
52927W        W 5823   0.372   1.068   9.483
52928W        W 5824  33.267  23.123   2.120
52929W        W 5825  26.230  25.318   0.225
52930W        W 5826   2.042  31.267   2.621
52931W        W 5827  15.424  22.832   2.685
52932W        W 5828   0.811   3.139   7.172
52933W        W 5829   1.593  27.935   0.912
52934W        W 5830  28.273  26.319   8.695
52935W        W 5831   4.306  29.154   2.119
52936W        W 5832  10.120  26.217   0.824
52937W        W 5833  14.743  28.876   7.127
52938W        W 5834  27.973   4.669  10.269
52939W        W 5835  30.905  29.922   7.633
52940W        W 5836  21.185   3.559   9.324
52941W        W 5837  14.408   3.107   0.963
52942W        W 5838   7.094  33.311   6.813
52943W        W 5839  34.713  28.840   8.036
52944W        W 5840  30.183  35.563   1.564
52945W        W 5841  18.435  23.289   3.531
52946W        W 5842  14.334  22.263   2.093
52947W        W 5843  12.034   7.871   0.809
52948W        W 5844  21.176   5.806   0.868
52949W        W 5845  15.926  31.947   0.482
52950W        W 5846   3.090  25.585   2.263
52951W        W 5847   6.324   2.451   3.032
52952W        W 5848   2.433   0.142   2.725
52953W        W 5849  24.150  35.819   2.986
52954W        W 5850  29.576  21.175   1.942
52955W        W 5851  17.747  19.455   3.265
52956W        W 5852  16.615   6.306   2.899
52957W        W 5853  27.527  13.036   8.885
52958W        W 5854   1.990  29.959   9.137
52959W        W 5855  26.821   9.433   0.609
52960W        W 5856  18.037  12.948   2.340
52961W        W 5857  20.641   8.877   2.001
52962W        W 5858  14.544  21.810   0.027
52963W        W 5859   8.647  10.019   2.559
52964W        W 5860  21.026  15.798   2.299
52965W        W 5861   1.356   7.440   2.198
52966W        W 5862   0.664  14.093   9.022
52967W        W 5863  10.893  24.509   1.572
52968W        W 5864  25.990  27.432   2.989
52969W        W 5865   3.182  20.471   2.025
52970W        W 5866  25.065  16.768   2.364
52971W        W 5867   6.571  28.280   8.368
52972W        W 5868  25.308  28.604   8.204
52973W        W 5869   2.614  27.018   8.884
52974W        W 5870  14.841  32.347   7.570
52975W        W 5871   7.059   8.090   1.976
52976W        W 5872  18.945  12.689   1.257
52977W        W 5873   2.002  10.674   8.257
52978W        W 5874   7.306  26.047   2.064
52979W        W 5875   2.598  34.847  10.205
52980W        W 5876  15.209  18.836   0.474
52981W        W 5877   0.201   6.531   9.657
52982W        W 5878  28.488  10.550   9.903
52983W        W 5879   0.324  25.817   9.153
52984W        W 5880  10.469  31.546   9.031
52985W        W 5881  30.892  32.334   2.422
52986W        W 5882   2.676   2.245   7.912
52987W        W 5883   4.485   6.767  10.039
52988W        W 5884  29.237  34.103   3.487
52989W        W 5885   1.624   5.755   9.477
52990W        W 5886  30.709   8.609   3.470
52991W        W 5887  28.229  32.742   2.827
52992W        W 5888   7.441   2.907   2.505
52993W        W 5889   7.108  24.050   8.581
52994W        W 5890  15.024  19.586   1.859
52995W        W 5891  11.555   3.166   1.274
52996W        W 5892   8.209  11.702   9.679
52997W        W 5893  18.385  24.283   2.176
52998W        W 5894  13.450  16.426   3.286
52999W        W 5895  26.174  21.408   2.455
53000W        W 5896   8.067  35.917   8.064
53001W        W 5897  33.483   1.091   2.760
53002W        W 5898  22.382   0.845  10.155
53003W        W 5899  12.631   7.322   7.634
53004W        W 5900  32.775  18.425   0.022
53005W        W 5901  27.838  13.356   1.112
53006W        W 5902   6.776  10.920   0.230
53007W        W 5903  11.953  35.340   7.656
53008W        W 5904  11.830  31.342   7.688
53009W        W 5905   2.229   2.441   1.449
53010W        W 5906  12.864  14.941   0.903
53011W        W 5907  11.407   1.669   9.229
53012W        W 5908   5.301  35.343   9.543
53013W        W 5909   8.105  14.728   8.947
53014W        W 5910  13.136   3.737   1.019
53015W        W 5911  24.079  28.023   9.225
53016W        W 5912  11.030  10.260   0.818
53017W        W 5913   6.284  33.822   3.154
53018W        W 5914   1.126   5.971   1.628
53019W        W 5915   9.321  32.301   1.243
53020W        W 5916  12.314   5.839   1.669
53021W        W 5917   0.077   9.922   7.567
53022W        W 5918  27.497  16.126   2.453
53023W        W 5919   3.369   0.805   8.001
53024W        W 5920  32.490  25.229   8.952
53025W        W 5921   1.328  21.237   0.406
53026W        W 5922  15.797   6.927   8.779
53027W        W 5923  30.194  10.948   8.401
53028W        W 5924  21.226   2.478   9.433
53029W        W 5925  15.802   3.236   0.348
53030W        W 5926  31.864  34.524   8.947
53031W        W 5927  30.377   5.741   7.921
53032W        W 5928   6.787  29.857   7.465
53033W        W 5929   1.382   8.804   3.656
53034W        W 5930  16.284  31.753   9.530
53035W        W 5931  13.732  17.645   3.110
53036W        W 5932   1.016  19.783   1.357
53037W        W 5933   4.231   9.338   1.876
53038W        W 5934  15.346  32.828   3.562
53039W        W 5935   8.411   2.219   8.865
53040W        W 5936  17.418  29.115   8.847
53041W        W 5937  20.044  14.776   8.575
53042W        W 5938  17.047  15.563   9.372
53043W        W 5939  11.725  32.515   9.854
53044W        W 5940  24.922  20.887   8.023
53045W        W 5941  12.417  30.438   8.341
53046W        W 5942  30.608  31.153   0.386
53047W        W 5943   4.734  18.577  10.038
53048W        W 5944  15.122  25.480   3.582
53049W        W 5945  31.775  24.057   8.084
53050W        W 5946   6.405   6.176   1.309
53051W        W 5947  22.365  24.427  10.271
53052W        W 5948   8.184  31.076   2.187
53053W        W 5949  31.329   5.371   2.879
53054W        W 5950  27.023  22.235   9.375
53055W        W 5951   1.974  14.598  10.167
53056W        W 5952  12.807  11.149   9.034
53057W        W 5953  17.691  22.815   8.470
53058W        W 5954  19.225   0.235   1.149
53059W        W 5955   7.193  11.342   2.485
53060W        W 5956   1.356   6.708   1.349
53061W        W 5957   2.401  11.796   2.039
53062W        W 5958   0.550  27.121   9.855
53063W        W 5959  24.594  34.683   0.320
53064W        W 5960  15.694  34.588   1.317
53065W        W 5961  17.922   6.889   1.817
53066W        W 5962  23.977   8.556   2.870
53067W        W 5963   6.294  24.084   0.198
53068W        W 5964   6.403  19.489   2.756
53069W        W 5965  21.109   5.627   2.792
53070W        W 5966  31.998  28.308   2.799
53071W        W 5967  36.010  31.901   1.988
53072W        W 5968   7.664  16.250   2.822
53073W        W 5969   5.015   7.096   9.122
53074W        W 5970   5.086  32.900   2.380
53075W        W 5971   9.463  34.196   7.124
53076W        W 5972  10.573  17.727   2.473
53077W        W 5973  26.640  13.008   2.896
53078W        W 5974  23.708  19.354   3.641
53079W        W 5975  23.259   5.550   2.251
53080W        W 5976   1.086  14.482   2.473
53081W        W 5977  31.228  33.725   0.621
53082W        W 5978  30.499  11.787   1.957
53083W        W 5979   6.636   9.091   3.029
53084W        W 5980  30.416   3.737   3.354
53085W        W 5981   9.648  29.764   0.910
53086W        W 5982  12.806  14.877   3.765
53087W        W 5983   6.296  10.478   0.118
53088W        W 5984   8.099  25.820   0.511
53089W        W 5985   5.964   1.777   7.210
53090W        W 5986  13.151  10.593   7.799
53091W        W 5987  27.411  16.043   1.761
53092W        W 5988   1.313  23.896   2.356
53093W        W 5989  29.079  27.943   1.213
53094W        W 5990  29.130  33.229   0.725
53095W        W 5991   7.913   0.193   8.524
53096W        W 5992  17.915   9.361   0.739
53097W        W 5993   2.129  23.107   7.929
53098W        W 5994   9.874  27.335   0.085
53099W        W 5995   0.113  27.521   8.169
53100W        W 5996  13.830  24.660   9.537
53101W        W 5997  12.571  20.720  10.043
53102W        W 5998   9.209  26.755  10.175
53103W        W 5999  25.790   6.106   9.124
53104W        W 6000   7.614  11.639   2.601
53105W        W 6001  19.743  18.937   1.624
53106W        W 6002  20.468   2.585   1.004
53107W        W 6003   7.515  24.687   1.987
53108W        W 6004   1.705   3.598  10.131
53109W        W 6005  10.368  26.037   0.000
53110W        W 6006  23.539  30.987   0.607
53111W        W 6007  10.868   9.118   2.345
53112W        W 6008  21.223  18.337  10.278
53113W        W 6009  24.208  10.912   2.720
53114W        W 6010   0.550  34.059   2.090
53115W        W 6011  13.554  26.695   0.565
53116W        W 6012  28.611  35.919   2.473
53117W        W 6013   7.051   8.084   0.605
53118W        W 6014   3.968  25.985   1.384
53119W        W 6015  18.062  16.564   7.497
53120W        W 6016   5.864  14.444   0.307
53121W        W 6017   0.522  13.148   0.723
53122W        W 6018  28.958  26.114   1.620
53123W        W 6019   6.330  32.282   8.500
53124W        W 6020   1.135  19.262   0.655
53125W        W 6021  12.188   5.180   1.518
53126W        W 6022  21.154   0.157   8.563
53127W        W 6023  23.766  15.580   0.809
53128W        W 6024  21.550  24.590   9.106
53129W        W 6025  27.012  28.908   8.785
53130W        W 6026  17.249  29.783   8.094
53131W        W 6027  16.510   2.249   0.015
53132W        W 6028  11.534   5.233   2.042
53133W        W 6029  26.007  25.273   0.877
53134W        W 6030   2.967   1.260   8.014
53135W        W 6031  24.695  12.995   2.347
53136W        W 6032  13.876  20.356   8.473
53137W        W 6033  22.760  32.207   9.454
53138W        W 6034   3.848  26.236   2.200
53139W        W 6035  18.414  18.729   2.737
53140W        W 6036  33.404  10.917   9.370
53141W        W 6037   1.461  19.048   2.710
53142W        W 6038  18.106   7.567   2.668
53143W        W 6039  21.047  16.805   2.922
53144W        W 6040  34.919  18.680   4.143
53145W        W 6041   8.987  17.004   0.406
53146W        W 6042   6.308   2.926   7.819
53147W        W 6043   5.689  26.337  10.250
53148W        W 6044   2.010  15.113   4.350
53149W        W 6045  26.919   0.408   0.577
53150W        W 6046  17.177   6.540   3.697
53151W        W 6047   8.429  11.743   7.152
53152W        W 6048  33.215  16.968   3.276
53153W        W 6049  22.003  22.427   8.905
53154W        W 6050  29.151  28.310   8.834
53155W        W 6051  17.648  10.354   0.420
53156W        W 6052   0.193  15.591   7.684
53157W        W 6053  19.726  31.966   0.939
53158W        W 6054  17.692  12.228   7.284
53159W        W 6055  24.983  31.642   2.915
53160W        W 6056   7.580  32.420   8.553
53161W        W 6057  10.296  32.649   7.464
53162W        W 6058   2.571  19.469   3.354
53163W        W 6059  21.688  28.616   3.187
53164W        W 6060  16.827   8.765   9.352
53165W        W 6061   7.320  27.589   2.203
53166W        W 6062  29.337  10.097   1.878
53167W        W 6063  13.695  30.529   7.768
53168W        W 6064  32.042  19.967   2.181
53169W        W 6065  20.274   1.110   8.298
53170W        W 6066  26.804  33.934   9.637
53171W        W 6067  27.054  27.347   8.630
53172W        W 6068  17.770  20.534   8.086
53173W        W 6069  22.195   5.446   9.809
53174W        W 6070   0.812  31.902  10.070
53175W        W 6071   1.795  35.272   9.841
53176W        W 6072   4.338  14.522   1.055
53177W        W 6073  24.046  30.003   8.028
53178W        W 6074  23.588  10.882   2.282
53179W        W 6075  12.626  32.271   1.064
53180W        W 6076   5.265   6.835   2.573
53181W        W 6077  34.235  24.005   1.743
53182W        W 6078  10.550  32.926   2.013
53183W        W 6079  10.844  16.762   0.417
53184W        W 6080  21.117  27.990  10.087
53185W        W 6081   6.332  16.384   1.809
53186W        W 6082   2.755  27.556   8.805
53187W        W 6083  21.666  12.500   0.783
53188W        W 6084  13.145  14.725   0.004
53189W        W 6085  21.476  28.453   3.699
53190W        W 6086   0.582   9.324   3.787
53191W        W 6087   8.993   2.253   0.756
53192W        W 6088  24.441  31.876   7.260
53193W        W 6089  15.421  12.101   1.509
53194W        W 6090  15.605  12.543   1.290
53195W        W 6091  11.170  25.028   7.712
53196W        W 6092  25.057  27.056   1.369
53197W        W 6093  22.131  34.668   8.339
53198W        W 6094  24.157  16.270   8.195
53199W        W 6095  32.449  16.790   0.893
53200W        W 6096   4.560   7.501   1.196
53201W        W 6097  22.481  19.802   0.426
53202W        W 6098  33.815  14.746   9.857
53203W        W 6099  30.751  29.657   2.046
53204W        W 6100  35.759  11.593   9.504
53205W        W 6101  11.642  10.372   0.434
53206W        W 6102  13.710  10.254   2.000
53207W        W 6103  16.279  21.168   0.774
53208W        W 6104  25.277  18.624   3.439
53209W        W 6105  22.650   8.756   9.316
53210W        W 6106  16.910  23.879   0.477
53211W        W 6107   0.205  28.461   9.293
53212W        W 6108  27.053  13.211   1.577
53213W        W 6109  14.032  15.126   0.757
53214W        W 6110  14.054  30.636   0.933
53215W        W 6111  33.800   4.996   7.062
53216W        W 6112  13.923   8.300   0.781
53217W        W 6113  14.109  19.457   8.715
53218W        W 6114  32.686  30.438   8.099
53219W        W 6115  29.945   2.890   9.666
53220W        W 6116  33.155  23.985   9.121
53221W        W 6117   2.586  23.624   9.842
53222W        W 6118  23.353   2.619   1.568
53223W        W 6119   1.364  20.146   9.121
53224W        W 6120  10.341  34.942   7.199
53225W        W 6121  20.213  33.351   9.482
53226W        W 6122  27.554  19.212   7.797
53227W        W 6123  25.354  32.518   0.415
53228W        W 6124   8.348  22.778   6.824
53229W        W 6125   6.129  14.555   8.209
53230W        W 6126  19.056  22.182   0.784
53231W        W 6127  11.815   3.516   3.023
53232W        W 6128  10.345  11.685   3.109
53233W        W 6129  32.563  10.541   2.597
53234W        W 6130   7.733  31.274   0.137
53235W        W 6131  28.503   8.818   0.053
53236W        W 6132  27.097  11.524   7.857
53237W        W 6133  24.557   6.612   2.958
53238W        W 6134   2.653  24.633   0.357
53239W        W 6135  10.402  11.068   0.778
53240W        W 6136  13.810   1.411   9.837
53241W        W 6137   8.160   4.369   7.940
53242W        W 6138  30.125  29.454  10.085
53243W        W 6139  27.877   7.830   7.166
53244W        W 6140  25.314  20.991   7.753
53245W        W 6141  22.190  34.042   2.335
53246W        W 6142   6.994  17.678   3.461
53247W        W 6143  28.560  28.862   2.118
53248W        W 6144  15.484  25.181   0.556
53249W        W 6145  11.952   2.683   0.413
53250W        W 6146   2.774  21.733   8.370
53251W        W 6147  22.918   6.599   9.463
53252W        W 6148  14.653   0.278   1.818
53253W        W 6149  24.699  29.839   9.979
53254W        W 6150  23.968  29.551   9.026
53255W        W 6151  35.540   8.050   1.118
53256W        W 6152   4.409   7.890   2.616
53257W        W 6153   1.526  26.218   2.267
53258W        W 6154  17.908  13.724   9.680
53259W        W 6155  14.962  12.345   7.784
53260W        W 6156  31.013  34.189   9.110
53261W        W 6157   3.508  27.582   0.113
53262W        W 6158   5.156  27.311   9.134
53263W        W 6159  16.549  33.218   8.771
53264W        W 6160  22.781  32.008   9.910
53265W        W 6161  20.647   2.095   7.553
53266W        W 6162  16.872   5.269   1.192
53267W        W 6163  35.658  15.319   9.905
53268W        W 6164  12.714  24.575   9.338
53269W        W 6165   9.554  34.239  10.106
53270W        W 6166  15.689  28.017   0.737
53271W        W 6167   7.642  33.676   0.315
53272W        W 6168   4.505  20.995   9.329
53273W        W 6169  34.538  12.189   3.257
53274W        W 6170  10.608   7.376   2.330
53275W        W 6171  16.003  13.150   9.026
53276W        W 6172  27.105  35.251   8.277
53277W        W 6173  10.927  20.046   0.151
53278W        W 6174  32.622   4.925   7.812
53279W        W 6175  23.896  33.492   2.854
53280W        W 6176   4.672   7.056   8.642
53281W        W 6177   3.599  27.839   9.117
53282W        W 6178  18.550  15.662   1.212
53283W        W 6179  33.097   6.497   9.327
53284W        W 6180  25.538  20.922   1.342
53285W        W 6181  32.401  30.649   2.503
53286W        W 6182  31.650   7.475   0.533
53287W        W 6183  12.945   2.547   7.672
53288W        W 6184  14.497  23.186   0.006
53289W        W 6185  34.451  18.148   2.555
53290W        W 6186  32.145  13.772   1.799
53291W        W 6187  34.816  35.072   7.490
53292W        W 6188  29.567  31.654   9.979
53293W        W 6189  12.704  21.223   1.554
53294W        W 6190  15.717  34.294   1.699
53295W        W 6191  35.137  16.012   2.042
53296W        W 6192   1.670  17.896   9.214
53297W        W 6193   2.477  32.741   2.819
53298W        W 6194  26.566  27.477   7.528
53299W        W 6195  23.866  10.722   8.226
53300W        W 6196  17.639  20.695   2.693
53301W        W 6197  12.347   2.932   9.731
53302W        W 6198   5.220  30.122   0.030
53303W        W 6199   3.195  23.510   0.630
53304W        W 6200  23.214  31.641   9.156
53305W        W 6201  30.241  20.019   8.830
53306W        W 6202  16.431  26.628   3.212
53307W        W 6203  16.390  19.962   1.558
53308W        W 6204  24.374  11.085   8.363
53309W        W 6205  30.543  34.820   2.547
53310W        W 6206  32.618  34.171   2.491
53311W        W 6207  30.582   9.008   0.533
53312W        W 6208  30.714   0.496   0.743
53313W        W 6209  25.208   5.914   2.433
53314W        W 6210   5.153   8.915   9.251
53315W        W 6211  27.018  28.506   7.628
53316W        W 6212  27.715  18.490   3.124
53317W        W 6213  27.927  19.544   0.234
53318W        W 6214   7.596  32.319   1.240
53319W        W 6215  24.914   0.415   0.927
53320W        W 6216  26.654  19.436   2.051
53321W        W 6217   2.760  19.756   9.839
53322W        W 6218  15.035  35.732   9.685
53323W        W 6219  16.788  12.208   8.420
53324W        W 6220  33.141  18.335   1.909
53325W        W 6221   4.379  25.217   8.456
53326W        W 6222  24.269  15.502  10.064
53327W        W 6223  21.888  35.948   1.003
53328W        W 6224   4.527  14.268   3.123
53329W        W 6225  33.264  17.820   2.109
53330W        W 6226  13.671  25.817   7.052
53331W        W 6227   0.091  21.789   1.620
53332W        W 6228  27.626   7.296   8.588
53333W        W 6229   6.768   4.089  10.073
53334W        W 6230  35.518   2.406   0.682
53335W        W 6231  34.626  18.911   2.281
53336W        W 6232  18.530   7.095   8.818
53337W        W 6233  26.553   0.870   2.564
53338W        W 6234   5.930  13.425   7.988
53339W        W 6235  35.431   6.668   1.010
53340W        W 6236   6.068  27.802   1.033
53341W        W 6237  28.846  27.811   9.732
53342W        W 6238  18.062  21.258   3.636
53343W        W 6239  27.541   4.534   0.883
53344W        W 6240  10.821  20.298   8.432
53345W        W 6241  10.557   3.918   1.019
53346W        W 6242  13.986   9.845   8.788
53347W        W 6243  13.691  16.416   1.510
53348W        W 6244  19.002  19.537   0.899
53349W        W 6245  22.957  21.555  10.037
53350W        W 6246  25.811   5.806   8.235
53351W        W 6247  17.364  17.805   9.909
53352W        W 6248   4.285  22.402   8.295
53353W        W 6249  14.534  32.745   2.719
53354W        W 6250  35.287  18.907  10.107
53355W        W 6251  31.352   2.966   2.203
53356W        W 6252   3.834  31.203   2.256
53357W        W 6253  18.809  27.598   3.855
53358W        W 6254  29.622  10.956   8.505
53359W        W 6255   8.659  20.994   8.639
53360W        W 6256  16.042   0.213   0.565
53361W        W 6257  15.944   6.755   3.322
53362W        W 6258  35.312   8.674   8.938
53363W        W 6259  28.492  22.431   0.016
53364W        W 6260   0.341  28.401   2.067
53365W        W 6261  22.859  19.394  10.074
53366W        W 6262   5.688  31.347   7.655
53367W        W 6263  33.324   7.474   2.018
53368W        W 6264   5.176  34.945   0.470
53369W        W 6265   4.177  17.363   0.775
53370W        W 6266  12.394   8.303   9.417
53371W        W 6267  23.585  34.034   9.325
53372W        W 6268  27.060  33.532   2.337
53373W        W 6269  20.309   4.272  10.016
53374W        W 6270  34.714   1.804   1.956
53375W        W 6271   2.156   3.756   0.160
53376W        W 6272   2.700  10.229   0.840
53377W        W 6273  25.413  18.233   0.936
53378W        W 6274   2.755  21.714   3.858
53379W        W 6275  20.278  27.886   0.315
53380W        W 6276  25.465   2.580   0.781
53381W        W 6277   4.672  12.801   1.775
53382W        W 6278  15.908  10.039   0.479
53383W        W 6279  32.680  26.949   0.749
53384W        W 6280   2.394  26.365   9.153
53385W        W 6281  19.751   1.997   2.688
53386W        W 6282   0.251  23.929   1.305
53387W        W 6283  30.964  29.824   2.722
53388W        W 6284  20.127  30.294   2.048
53389W        W 6285  17.231  16.236   7.344
53390W        W 6286  25.483   1.238   1.229
53391W        W 6287  35.537  28.912   1.595
53392W        W 6288  23.002  35.793   2.406
53393W        W 6289   9.125   6.814   0.451
53394W        W 6290   9.200  34.979   8.630
53395W        W 6291  30.199   2.550   8.521
53396W        W 6292  31.605  12.910   2.104
53397W        W 6293   6.530  19.690   1.086
53398W        W 6294   4.698  34.103   7.685
53399W        W 6295  34.919  32.584   8.856
53400W        W 6296   5.230   6.204   0.281
53401W        W 6297  30.788   6.437   9.719
53402W        W 6298  17.209  17.978   0.113
53403W        W 6299  19.553  15.790   2.903
53404W        W 6300   7.393  19.197   9.005
53405W        W 6301  28.664  32.997   2.548
53406W        W 6302  12.254  34.579   7.325
53407W        W 6303   3.722  14.305   2.626
53408W        W 6304  20.536  28.927   9.086
53409W        W 6305  13.546  22.947   0.899
53410W        W 6306   8.189   8.459   3.079
53411W        W 6307  16.769  16.573   2.864
53412W        W 6308  15.105   1.398   3.299
53413W        W 6309  30.551   1.961   9.923
53414W        W 6310  10.431  23.293   9.540
53415W        W 6311  22.653  25.296   0.320
53416W        W 6312  15.811   0.910   2.652
53417W        W 6313  14.409  12.194   0.302
53418W        W 6314  25.241   0.155   0.023
53419W        W 6315  16.401  25.103  10.149
53420W        W 6316   3.709  29.869   1.790
53421W        W 6317   6.162   4.895   1.961
53422W        W 6318  33.734  35.955   1.220
53423W        W 6319   0.502  24.430   1.822
53424W        W 6320  15.215   8.518   9.743
53425W        W 6321   1.207   2.249   9.804
53426W        W 6322  10.857   7.276   8.761
53427W        W 6323  21.469  14.808   0.448
53428W        W 6324  30.552  20.996   2.518
53429W        W 6325  25.966   9.075   0.312
53430W        W 6326  15.235  17.171   8.432
53431W        W 6327  24.472  22.908   9.528
53432W        W 6328  16.015   1.312   3.363
53433W        W 6329  30.887  11.132   2.287
53434W        W 6330  34.215  32.993   1.379
53435W        W 6331   9.928   4.266   2.015
53436W        W 6332  26.726  16.969   9.115
53437W        W 6333   6.049  20.545   1.114
53438W        W 6334   1.559  19.733   8.719
53439W        W 6335   2.646  24.948   0.808
53440W        W 6336  22.827   9.809   0.030
53441W        W 6337   1.552  10.489  10.067
53442W        W 6338  21.003   8.110   8.225
53443W        W 6339  22.102  18.149   2.691
53444W        W 6340   6.212  35.169   2.344
53445W        W 6341   1.660  23.640   1.054
53446W        W 6342  35.306  18.086   1.859
53447W        W 6343   1.892  29.872   1.163
53448W        W 6344   1.993   8.369   0.327
53449W        W 6345  19.525  15.648   8.126
53450W        W 6346   3.122  25.964   0.873
53451W        W 6347   0.871   1.839  10.008
53452W        W 6348  10.193  21.158  10.316
53453W        W 6349  23.572  33.703   9.856
53454W        W 6350  19.257   3.887   8.800
53455W        W 6351  30.128  14.091   0.898
53456W        W 6352  35.789  28.510   0.802
53457W        W 6353   0.120  15.996   0.644
53458W        W 6354  18.096  34.230   9.360
53459W        W 6355   1.599  24.602   4.418
53460W        W 6356  11.866  18.207   0.120
53461W        W 6357   7.858  10.863   0.523
53462W        W 6358  22.247  10.854   9.866
53463W        W 6359  21.050  14.818   2.212
53464W        W 6360  31.136   6.140  10.054
53465W        W 6361  32.615  10.117   0.220
53466W        W 6362  32.789  35.514   0.686
53467W        W 6363   9.572  25.983   0.145
53468W        W 6364  23.438  10.135   3.009
53469W        W 6365  14.364  26.524   0.808
53470W        W 6366   1.402   9.280   1.352
53471W        W 6367  18.451   1.750   1.103
53472W        W 6368   1.160  13.527   8.318
53473W        W 6369  28.909  28.910   1.275
53474W        W 6370  23.705   4.302  10.305
53475W        W 6371  22.474  22.348   1.363
53476W        W 6372  29.054  24.047   8.693
53477W        W 6373   7.528   5.358   3.081
53478W        W 6374  29.273   1.458   2.976
53479W        W 6375  21.827  18.923   9.795
53480W        W 6376  11.603   1.806   8.794
53481W        W 6377  16.452  35.856   2.216
53482W        W 6378  20.062  34.893   8.690
53483W        W 6379  18.421  27.285   9.898
53484W        W 6380   8.407   0.277   0.136
53485W        W 6381   7.396  15.298   0.947
53486W        W 6382  29.557  34.086   9.497
53487W        W 6383  10.459  35.798   9.387
53488W        W 6384  22.408  32.445   0.102
53489W        W 6385   2.276  13.627   2.366
53490W        W 6386  28.807  32.713   2.167
53491W        W 6387  30.057  23.647   2.410
53492W        W 6388   8.080  30.152   8.718
53493W        W 6389  16.284  24.554   2.422
53494W        W 6390   8.671   7.758  10.277
53495W        W 6391  26.512  12.623   3.219
53496W        W 6392  29.961  28.810   1.434
53497W        W 6393   4.307  22.898   1.553
53498W        W 6394  22.908  15.082   0.918
53499W        W 6395   2.549  32.663   8.620
53500W        W 6396  24.793   0.108   3.525
53501W        W 6397  27.709   7.139   1.613
53502W        W 6398   5.353  34.056  10.190
53503W        W 6399  33.928  35.541   7.269
53504W        W 6400  16.130  16.750   9.430
53505W        W 6401  12.375   7.539   2.458
53506W        W 6402  22.037  30.319   0.169
53507W        W 6403  25.147  21.693  10.134
53508W        W 6404  30.089  29.053   1.981
53509W        W 6405  32.101   9.949   0.205
53510W        W 6406  30.539  29.681   2.513
53511W        W 6407  31.078  31.023   0.857
53512W        W 6408  15.295  24.491   7.657
53513W        W 6409  16.867  22.837   8.776
53514W        W 6410  20.709  27.762   3.355
53515W        W 6411   0.097  26.250   1.920
53516W        W 6412  10.533  17.690   6.985
53517W        W 6413  10.171  35.956   2.097
53518W        W 6414  18.845  33.784   3.024
53519W        W 6415  18.736  32.579   9.089
53520W        W 6416   7.909  28.577   8.258
53521W        W 6417  16.000  10.910   3.627
53522W        W 6418  21.141  24.392   1.855
53523W        W 6419  24.157  16.390  10.070
53524W        W 6420   3.940  31.396  10.156
53525W        W 6421  20.933  29.026   3.323
53526W        W 6422   6.888  15.665   0.314
53527W        W 6423  11.846   0.812   1.720
53528W        W 6424  16.702  35.494   1.863
53529W        W 6425  35.294  17.402   2.014
53530W        W 6426  24.086  18.320   3.031
53531W        W 6427  23.768  19.964   3.171
53532W        W 6428   6.440  15.543   3.447
53533W        W 6429  25.393  15.836   2.173
53534W        W 6430   6.192  22.813   0.910
53535W        W 6431  23.965  14.015  10.323
53536W        W 6432  13.588   1.493   3.438
53537W        W 6433  30.561   8.425   2.901
53538W        W 6434   3.798  25.227   3.523
53539W        W 6435  24.661  30.240   7.451
53540W        W 6436   1.526  23.114   2.535
53541W        W 6437  23.021  32.177   8.926
53542W        W 6438  27.012  35.709   0.332
53543W        W 6439  21.527  27.669   8.294
53544W        W 6440  23.207  11.170   7.507
53545W        W 6441   3.610  31.775   2.805
53546W        W 6442  30.139  34.955   7.684
53547W        W 6443  34.261   7.309   9.810
53548W        W 6444  19.241   0.694   0.963
53549W        W 6445  27.774  14.042   7.763
53550W        W 6446  11.721  21.089   1.296
53551W        W 6447  14.990  10.295   2.319
53552W        W 6448  33.474   3.876   0.536
53553W        W 6449  34.364  19.902   7.588
53554W        W 6450   1.560  24.965   9.905
53555W        W 6451  10.341  26.888   8.695
53556W        W 6452   1.524  29.447   1.924
53557W        W 6453   8.813  34.176   9.044
53558W        W 6454  20.872  12.404   8.663
53559W        W 6455   7.611  35.308   9.344
53560W        W 6456  13.974   8.080   1.232
53561W        W 6457  20.852  31.224   2.615
53562W        W 6458   2.440  32.382  10.331
53563W        W 6459   9.904   5.185  10.019
53564W        W 6460  21.486  33.273   1.222
53565W        W 6461  24.932  30.446   1.132
53566W        W 6462  33.567  14.414   1.478
53567W        W 6463  25.312  33.443   2.523
53568W        W 6464   5.486   0.166   1.536
53569W        W 6465  16.050  13.714   1.722
53570W        W 6466  22.916   2.559   8.632
53571W        W 6467  35.910  15.936   8.431
53572W        W 6468   9.907  15.125   0.765
53573W        W 6469  29.711  26.042   8.316
53574W        W 6470  11.686   6.633  10.016
53575W        W 6471  22.314  12.573  10.030
53576W        W 6472  16.672  25.901   0.302
53577W        W 6473  29.203  11.745  10.070
53578W        W 6474  19.968  30.790   7.874
53579W        W 6475  34.532   5.543   0.685
53580W        W 6476  21.560  13.408   2.271
53581W        W 6477  16.649  10.769   2.557
53582W        W 6478  30.898  22.613   9.254
53583W        W 6479   1.385  19.246   8.965
53584W        W 6480   7.722  16.185   0.573
53585W        W 6481   8.701  23.355   9.861
53586W        W 6482  32.623  13.718   0.730
53587W        W 6483   3.721  27.065   2.720
53588W        W 6484  13.887  16.858   1.615
53589W        W 6485  20.454  18.359   8.918
53590W        W 6486   9.624  25.402   0.436
53591W        W 6487   3.752  34.479  10.196
53592W        W 6488  35.391  24.948   2.543
53593W        W 6489  35.775   8.910   0.118
53594W        W 6490   3.825  32.520   8.035
53595W        W 6491  19.393  10.757   0.810
53596W        W 6492  13.855  27.242   1.733
53597W        W 6493  23.881  35.539   0.039
53598W        W 6494  11.142  32.497   1.779
53599W        W 6495  23.766  17.983   3.310
53600W        W 6496  19.559   7.485   1.437
53601W        W 6497   8.950   5.184  10.249
53602W        W 6498  18.896   7.257   8.341
53603W        W 6499  27.312   0.721   1.455
53604W        W 6500   2.257  24.322   8.132
53605W        W 6501   4.857  22.771   9.241
53606W        W 6502  18.581   8.247   8.229
53607W        W 6503  18.548   5.537   8.412
53608W        W 6504  31.711  14.106   9.774
53609W        W 6505  31.407  23.920   9.658
53610W        W 6506  32.977   7.838   1.817
53611W        W 6507  29.991  29.178   8.739
53612W        W 6508   8.458  18.181   3.026
53613W        W 6509   6.227  21.882   7.247
53614W        W 6510   1.964  25.824   1.571
53615W        W 6511   5.708   5.092   8.427
53616W        W 6512  11.842   5.000   9.614
53617W        W 6513  16.098  27.403   3.545
53618W        W 6514   3.082   4.584   3.139
53619W        W 6515   5.516  11.836   8.665
53620W        W 6516  14.798   6.733   9.225
53621W        W 6517  14.093  10.695   1.775
53622W        W 6518   2.740  33.356   1.167
53623W        W 6519  14.381  35.776   7.112
53624W        W 6520  33.990  19.569   8.783
53625W        W 6521  26.721  21.186  10.084
53626W        W 6522   3.809  28.904   2.136
53627W        W 6523  20.749   4.911   8.648
53628W        W 6524  11.587  25.774   1.482
53629W        W 6525   1.867  14.257   1.806
53630W        W 6526  21.861  14.311   8.415
53631W        W 6527  23.817  23.686   0.779
53632W        W 6528  32.802  16.480   1.549
53633W        W 6529  27.789  34.992   9.858
53634W        W 6530  23.714  13.640   8.033
53635W        W 6531  25.797  26.091   2.454
53636W        W 6532  24.056   3.944   8.180
53637W        W 6533  17.585   9.077   3.058
53638W        W 6534   6.779  11.189   7.952
53639W        W 6535  35.719   4.750   0.997
53640W        W 6536   9.319  10.727   3.349
53641W        W 6537   7.605  10.281   3.260
53642W        W 6538   2.069  12.228   1.272
53643W        W 6539  25.174  34.259   1.188
53644W        W 6540   0.265   8.293   2.179
53645W        W 6541  35.401  13.221   9.074
53646W        W 6542  13.597  21.226   9.217
53647W        W 6543  23.928  31.603   2.444
53648W        W 6544  16.112   6.389   1.909
53649W        W 6545   4.660   2.633   8.834
53650W        W 6546   0.220  26.299   1.217
53651W        W 6547  24.943  32.662   0.777
53652W        W 6548   5.323  21.815   0.738
53653W        W 6549   7.588  34.701   7.682
53654W        W 6550  21.079  14.461   3.211
53655W        W 6551  17.994  28.835   0.612
53656W        W 6552   4.280   0.869   1.700
53657W        W 6553  31.599  14.611   9.731
53658W        W 6554   7.520   8.587   9.891
53659W        W 6555   5.736  28.558   7.497
53660W        W 6556   0.911  11.652   3.646
53661W        W 6557   1.649   8.270   7.385
53662W        W 6558   9.097  16.183   1.334
53663W        W 6559  19.041  32.434   9.505
53664W        W 6560   4.589  29.710   2.771
53665W        W 6561  33.839  16.159   3.959
53666W        W 6562   5.994  25.660   2.300
53667W        W 6563  30.052   0.692   8.774
53668W        W 6564   9.971   6.211   9.895
53669W        W 6565   6.618  26.607   8.602
53670W        W 6566  12.492  25.583   0.998
53671W        W 6567  23.129   3.383   9.799
53672W        W 6568  29.453   2.414   9.479
53673W        W 6569  33.342  24.961   1.730
53674W        W 6570  16.086  12.061   2.797
53675W        W 6571  24.439   6.439   2.476
53676W        W 6572  28.278  11.129   8.654
53677W        W 6573   1.297  28.627   2.027
53678W        W 6574  31.973  28.426   2.321
53679W        W 6575   8.596  24.022   9.482
53680W        W 6576  33.309  26.256   3.250
53681W        W 6577  10.456  19.112   0.267
53682W        W 6578  19.794  29.127   3.408
53683W        W 6579  30.245  18.444  10.244
53684W        W 6580  26.624  27.638   0.269
53685W        W 6581  15.155  28.008  10.285
53686W        W 6582  20.602   5.311   0.530
53687W        W 6583  28.525  13.322   8.794
53688W        W 6584  15.030  14.678   0.092
53689W        W 6585   3.837  19.967   1.327
53690W        W 6586  26.528   9.678   1.059
53691W        W 6587  27.350  33.065   9.024
53692W        W 6588  15.238  23.771   0.690
53693W        W 6589  17.375  22.155   8.723
53694W        W 6590  20.163  15.286   7.528
53695W        W 6591  30.743  10.727   1.887
53696W        W 6592   4.517  35.683   9.551
53697W        W 6593  14.052  29.585   1.347
53698W        W 6594  24.449   6.624   1.250
53699W        W 6595  12.430  32.163   7.972
53700W        W 6596  33.325   9.295   8.193
53701W        W 6597  23.809  22.478   8.191
53702W        W 6598  31.203  23.733   2.567
53703W        W 6599  30.570  35.612   8.236
53704W        W 6600  21.810  29.595   9.932
53705W        W 6601   7.211   5.767   7.352
53706W        W 6602  33.277   8.131  10.199
53707W        W 6603  33.717  13.158   2.658
53708W        W 6604  17.414  17.597   0.615
53709W        W 6605   1.886  18.012   1.159
53710W        W 6606   8.052  21.188   9.497
53711W        W 6607   9.371   8.580   0.250
53712W        W 6608  14.479  27.418   9.630
53713W        W 6609  19.247  20.565  10.111
53714W        W 6610  15.841  10.579   1.965
53715W        W 6611   4.380   4.975   3.090
53716W        W 6612  35.266  23.705   1.523
53717W        W 6613   1.228  17.451   1.055
53718W        W 6614   1.549  22.926   0.018
53719W        W 6615  35.405  20.582   1.397
53720W        W 6616  21.365  28.102   2.368
53721W        W 6617  12.507  14.005   2.604
53722W        W 6618  23.707  16.281   0.727
53723W        W 6619   9.344  17.293   2.267
53724W        W 6620   9.323  21.116   0.687
53725W        W 6621  23.449  18.462  10.274
53726W        W 6622  29.111  22.771   3.437
53727W        W 6623  10.877  25.623   0.755
53728W        W 6624   0.079  14.326   8.051
53729W        W 6625  27.088  30.799   1.641
53730W        W 6626  19.687  30.533   2.209
53731W        W 6627  28.327  28.654   1.325
53732W        W 6628   0.615   8.809   3.262
53733W        W 6629  19.616  27.225   8.072
53734W        W 6630  27.333  25.700   8.377
53735W        W 6631   8.008  18.771   2.571
53736W        W 6632  29.196   0.515   0.613
53737W        W 6633  18.877  26.943   1.155
53738W        W 6634  20.807  33.016   0.604
53739W        W 6635  17.930  32.054   9.501
53740W        W 6636   5.815   9.818   1.707
53741W        W 6637  23.971  24.172   9.816
53742W        W 6638  10.030  27.654   1.091
53743W        W 6639  18.380  33.555   7.952
53744W        W 6640  33.684  25.129   8.992
53745W        W 6641  32.613   1.195   2.290
53746W        W 6642  20.980  27.863   9.639
53747W        W 6643   3.186  18.201   2.914
53748W        W 6644  27.530  12.429   1.092
53749W        W 6645  17.510  18.692   2.581
53750W        W 6646  24.429  32.213   2.872
53751W        W 6647  15.551  33.348   1.847
53752W        W 6648  22.127  18.227   0.001
53753W        W 6649   1.355   8.038   2.848
53754W        W 6650  29.739   2.763   8.822
53755W        W 6651  18.263  12.457   1.794
53756W        W 6652   7.972   9.603   2.056
53757W        W 6653   2.989  21.789   2.295
53758W        W 6654  23.081   9.906   8.731
53759W        W 6655  16.349  24.585   2.933
53760W        W 6656  17.077  24.202   3.282
53761W        W 6657  25.667  14.499   9.917
53762W        W 6658   0.630   0.640   1.925
53763W        W 6659  35.165  23.990   1.966
53764W        W 6660  20.324  27.324   3.197
53765W        W 6661   2.703  13.152   1.225
53766W        W 6662   3.388  13.982   2.879
53767W        W 6663  29.411  21.063  10.032
53768W        W 6664  22.644  22.075   7.800
53769W        W 6665  11.488   0.075   2.458
53770W        W 6666   8.831  24.891   9.897
53771W        W 6667   3.912  11.415   1.603
53772W        W 6668  35.162  28.517   8.315
53773W        W 6669  19.009  15.799   1.381
53774W        W 6670  17.367  21.609   8.457
53775W        W 6671  23.641  21.192   8.740
53776W        W 6672  27.999  15.878   8.386
53777W        W 6673  16.416  30.286   0.992
53778W        W 6674  27.778   2.878   7.589
53779W        W 6675  32.215  27.995   1.461
53780W        W 6676  32.351  35.095   1.487
53781W        W 6677  35.852  27.578   7.707
53782W        W 6678   4.312  29.681   0.257
53783W        W 6679  18.171   9.661   8.903
53784W        W 6680  18.335   6.065   1.227
53785W        W 6681  13.953  13.437   8.900
53786W        W 6682  17.587  18.157   2.782
53787W        W 6683  21.890  20.237   7.964
53788W        W 6684  29.582  19.583   0.505
53789W        W 6685  21.588  10.445   2.970
53790W        W 6686  17.425  11.861   7.977
53791W        W 6687  16.881   9.815   0.264
53792W        W 6688  31.136   0.654   0.960
53793W        W 6689  17.853  32.731   2.818
53794W        W 6690  24.120  34.732  10.145
53795W        W 6691  20.329  23.763  10.089
53796W        W 6692   3.717  35.604   9.029
53797W        W 6693  13.445  22.537   2.523
53798W        W 6694  21.133  20.308   0.306
53799W        W 6695  21.988  11.376   1.454
53800W        W 6696   5.721  19.736  10.133
53801W        W 6697  20.584  34.714   3.383
53802W        W 6698  31.569  15.661   8.923
53803W        W 6699   4.799  18.531   2.413
53804W        W 6700  34.778  31.451   1.712
53805W        W 6701  31.651   4.479   3.165
53806W        W 6702  24.207  32.454  10.171
53807W        W 6703  31.015  31.121   8.279
53808W        W 6704  32.658  29.363   1.070
53809W        W 6705  31.357  12.130   8.684
53810W        W 6706  13.473  17.773   1.840
53811W        W 6707   3.291  31.075   1.396
53812W        W 6708  31.026  33.990   2.756
53813W        W 6709  22.262   4.578   9.100
53814W        W 6710  13.286  14.591   8.767
53815W        W 6711  21.642  19.707  10.051
53816W        W 6712  10.232  27.432   7.265
53817W        W 6713  11.026  22.715   1.312
53818W        W 6714   5.179  20.061  10.031
53819W        W 6715  31.350   1.463   3.002
53820W        W 6716  14.772  28.412   1.789
53821W        W 6717   6.632  10.436   9.394
53822W        W 6718  35.078  30.855   1.411
53823W        W 6719   7.284  16.791   8.254
53824W        W 6720  17.941   8.699   2.289
53825W        W 6721   7.449  19.242   1.174
53826W        W 6722  25.042   4.168   9.611
53827W        W 6723  11.455  23.090   7.847
53828W        W 6724   9.754  31.618   0.446
53829W        W 6725  23.282  22.502   1.114
53830W        W 6726  32.387   1.600   2.146
53831W        W 6727  32.156  18.377   9.076
53832W        W 6728  18.414   6.247   2.973
53833W        W 6729  16.612  24.239   1.617
53834W        W 6730   3.792   1.041   1.157
53835W        W 6731  16.742   5.949   0.208
53836W        W 6732   0.729  26.665  10.157
53837W        W 6733   8.987   2.489   0.285
53838W        W 6734  18.281   8.861   8.102
53839W        W 6735  12.769   3.781   8.278
53840W        W 6736  23.536  26.804   9.610
53841W        W 6737   7.776  12.176   0.173
53842W        W 6738  27.326  10.589   2.326
53843W        W 6739  21.479  11.468   2.253
53844W        W 6740  34.489  10.845   9.377
53845W        W 6741  34.539  33.432   9.537
53846W        W 6742  12.997  20.847   8.252
53847W        W 6743  29.171  32.152   8.925
53848W        W 6744   0.169  35.151   2.825
53849W        W 6745  31.483  16.888   2.970
53850W        W 6746  35.502  34.918   1.208
53851W        W 6747  13.842  29.318   0.513
53852W        W 6748  16.024  34.027   7.770
53853W        W 6749  14.744  23.258   1.916
53854W        W 6750  28.858  10.291   1.671
53855W        W 6751  23.340  10.162   0.924
53856W        W 6752  27.988  10.857   9.250
53857W        W 6753   3.441  27.262   8.364
53858W        W 6754   7.537  26.370   8.691
53859W        W 6755  25.312   9.091   3.235
53860W        W 6756  17.098   5.910   1.348
53861W        W 6757   2.226   2.290   0.571
53862W        W 6758  20.593  22.442   0.248
53863W        W 6759  26.953   3.471   0.549
53864W        W 6760  32.046  31.682   1.411
53865W        W 6761  23.798  29.102   1.984
53866W        W 6762   6.915  33.879   0.748
53867W        W 6763  21.592  14.629   1.438
53868W        W 6764   0.748  31.451   0.246
53869W        W 6765  18.780  21.746   2.543
53870W        W 6766  28.243  24.103   7.086
53871W        W 6767  24.144   9.611   8.259
53872W        W 6768  24.945  10.161   2.231
53873W        W 6769  12.135  11.893   9.066
53874W        W 6770  29.575  14.413   7.953
53875W        W 6771  28.500  18.122   8.706
53876W        W 6772   6.739  16.038   1.876
53877W        W 6773   7.746  23.020   1.118
53878W        W 6774   1.931  35.127   8.523
53879W        W 6775  27.048   9.132   2.320
53880W        W 6776  23.662   1.306   8.139
53881W        W 6777  20.358  22.682   0.734
53882W        W 6778  17.355  14.974   0.736
53883W        W 6779   6.777  15.805   1.138
53884W        W 6780  28.427  21.325   1.235
53885W        W 6781   4.783  14.818   9.618
53886W        W 6782  20.186  26.754   9.347
53887W        W 6783  30.139   4.159   0.694
53888W        W 6784  31.999   3.463   1.261
53889W        W 6785   9.771   4.625   7.530
53890W        W 6786   0.800  31.537   2.797
53891W        W 6787  30.139  31.303   8.895
53892W        W 6788  27.452  15.901   0.041
53893W        W 6789  11.854  28.854   7.744
53894W        W 6790  28.655  12.597   1.731
53895W        W 6791  19.196  28.890   2.941
53896W        W 6792  35.124   9.281   7.518
53897W        W 6793  17.280  30.349   1.096
53898W        W 6794  17.640   5.690   8.155
53899W        W 6795  11.054  32.129   2.189
53900W        W 6796  18.605  19.476   9.482
53901W        W 6797   1.760   6.414   9.682
53902W        W 6798   5.998  17.978   7.984
53903W        W 6799  14.474   1.110   7.197
53904W        W 6800   5.313  32.864  10.258
53905W        W 6801   5.915  11.506   0.555
53906W        W 6802  14.383  11.369   0.429
53907W        W 6803  12.533  27.198   1.808
53908W        W 6804  35.590   3.716   9.758
53909W        W 6805  10.477   0.216   8.981
53910W        W 6806  27.887  34.617   9.510
53911W        W 6807  13.579  15.612   7.411
53912W        W 6808  17.165  27.377   2.227
53913W        W 6809  31.476   8.420   8.149
53914W        W 6810  14.099  15.542   1.680
53915W        W 6811  33.349  22.093  10.083
53916W        W 6812  10.920  32.813   8.256
53917W        W 6813   1.101  31.414   8.574
53918W        W 6814  23.627  32.075   9.253
53919W        W 6815   9.389  15.301   9.247
53920W        W 6816   0.561  33.698   7.858
53921W        W 6817   4.889  34.372  10.173
53922W        W 6818  27.101  21.759   3.097
53923W        W 6819  19.787  25.206   7.351
53924W        W 6820  20.765  18.355   8.562
53925W        W 6821  11.732  27.609   1.870
53926W        W 6822   3.626  26.829   0.721
53927W        W 6823  30.696  19.592   0.893
53928W        W 6824  24.064  32.758   8.380
53929W        W 6825  20.664   5.758   9.646
53930W        W 6826  34.510  24.310   8.064
53931W        W 6827   9.494   9.235   2.591
53932W        W 6828  32.652   6.506   8.396
53933W        W 6829  16.456   4.491   1.649
53934W        W 6830  33.893  14.335  10.240
53935W        W 6831  27.370  34.992   9.533
53936W        W 6832  32.561   4.054   8.523
53937W        W 6833   6.684   2.816  10.016
53938W        W 6834  17.130  28.703   8.953
53939W        W 6835  26.862  32.690   1.220
53940W        W 6836  34.930   3.047   7.802
53941W        W 6837   9.350  26.147   1.823
53942W        W 6838  13.910  26.863   0.876
53943W        W 6839   6.338  33.817   2.579
53944W        W 6840   5.019  19.617   1.438
53945W        W 6841  20.162  33.990   2.044
53946W        W 6842  14.674  26.399   2.205
53947W        W 6843   7.858  24.357   9.878
53948W        W 6844  26.411   3.996   0.304
53949W        W 6845  20.043   3.461   7.797
53950W        W 6846  11.142  13.209   1.403
53951W        W 6847  20.491  22.640   2.627
53952W        W 6848  19.693  20.784   2.011
53953W        W 6849  11.271  34.685   9.747
53954W        W 6850  35.966  22.073   2.455
53955W        W 6851  32.505  27.741   0.321
53956W        W 6852  20.416  17.684   7.213
53957W        W 6853  21.519  13.679   9.377
53958W        W 6854  25.768  18.986   8.849
53959W        W 6855   4.637  34.916   8.086
53960W        W 6856   6.802   3.862   0.210
53961W        W 6857  13.075  19.116   1.815
53962W        W 6858  28.656  22.802   2.100
53963W        W 6859  22.116  11.801   1.169
53964W        W 6860  31.739  22.235   8.133
53965W        W 6861  31.805  24.752   3.414
53966W        W 6862   8.713  14.706   1.483
53967W        W 6863  28.679   4.098   8.202
53968W        W 6864  19.860  21.555   9.639
53969W        W 6865  13.767  27.936   0.980
53970W        W 6866   4.048  35.860   0.307
53971W        W 6867  26.252  24.526  10.099
53972W        W 6868  35.706  33.494   7.919
53973W        W 6869   3.561  16.834   8.951
53974W        W 6870   3.304   5.429   8.270
53975W        W 6871   1.590  10.228   9.646
53976W        W 6872  27.326   0.262   3.793
53977W        W 6873  24.543  28.869   9.482
53978W        W 6874  22.382  19.564   0.943
53979W        W 6875   4.781  33.975   1.230
53980W        W 6876  30.563   7.757   7.990
53981W        W 6877   3.119   4.064   9.687
53982W        W 6878  10.845  20.733   9.859
53983W        W 6879  34.163  14.664   2.228
53984W        W 6880   8.863   1.490   7.146
53985W        W 6881   7.028  23.258   1.692
53986W        W 6882  22.503   5.463   9.349
53987W        W 6883  14.206  16.262   0.900
53988W        W 6884   5.503   7.443   8.252
53989W        W 6885  14.393   0.870   9.998
53990W        W 6886  31.842  31.520   7.221
53991W        W 6887  31.653  29.555   3.455
53992W        W 6888  23.557   4.731   0.202
53993W        W 6889  30.503  21.599   9.333
53994W        W 6890   8.491  17.827   9.342
53995W        W 6891  35.518  28.865   8.597
53996W        W 6892  33.114  31.991   9.242
53997W        W 6893   4.311  35.622   2.147
53998W        W 6894  10.863  13.609   1.272
53999W        W 6895  16.228   1.075   2.353
54000W        W 6896  28.275   4.876   1.559
54001W        W 6897   9.034  27.696   8.792
54002W        W 6898  22.225  16.097   9.007
54003W        W 6899  16.060  23.483   8.099
54004W        W 6900  12.754   0.702   2.374
54005W        W 6901   8.377  31.977   3.267
54006W        W 6902  35.696  34.199   9.760
54007W        W 6903  15.154  14.141   9.308
54008W        W 6904  29.524  11.987   0.905
54009W        W 6905  26.092  25.773   8.663
54010W        W 6906  21.193   9.180   9.094
54011W        W 6907  27.286   3.017   8.911
54012W        W 6908  14.782  15.248   9.955
54013W        W 6909  28.506  34.591  10.186
54014W        W 6910   2.016  17.107   0.018
54015W        W 6911  21.474  29.360   9.566
54016W        W 6912   8.474  19.884   1.556
54017W        W 6913   5.824  27.266   7.615
54018W        W 6914  33.028  10.235  10.331
54019W        W 6915  23.021  17.977   9.050
54020W        W 6916  27.140  29.302   1.936
54021W        W 6917  33.922   9.919   0.838
54022W        W 6918  28.671  32.490   0.520
54023W        W 6919   5.373  34.435   8.586
54024W        W 6920  18.059  22.262   0.800
54025W        W 6921  12.388  19.600   9.441
54026W        W 6922  35.590  14.658   1.121
54027W        W 6923  33.862  16.567   2.082
54028W        W 6924   5.759   0.182   0.994
54029W        W 6925   2.547  32.815   9.636
54030W        W 6926  20.754   6.752   9.560
54031W        W 6927  26.858   0.353   8.725
54032W        W 6928  32.640  18.297   8.992
54033W        W 6929   3.652  30.752   0.015
54034W        W 6930  33.447  21.175   2.064
54035W        W 6931  25.603  11.913   9.398
54036W        W 6932   2.133  23.880   0.368
54037W        W 6933   7.046  33.838   9.213
54038W        W 6934  24.095   6.856   2.357
54039W        W 6935  33.581  12.599   8.777
54040W        W 6936  33.939   5.641   8.315
54041W        W 6937   7.227  25.839   3.030
54042W        W 6938   4.606  33.435   8.562
54043W        W 6939  32.491  17.300   7.725
54044W        W 6940   1.908  24.898   9.071
54045W        W 6941  17.916  14.360   1.393
54046W        W 6942   8.754  12.457   1.578
54047W        W 6943   5.474   9.451   9.940
54048W        W 6944  12.330  21.513   1.297
54049W        W 6945  34.085  35.949   8.373
54050W        W 6946   9.907  17.514   9.221
54051W        W 6947  32.905  29.698   9.136
54052W        W 6948  17.144  22.988   0.864
54053W        W 6949   2.074  22.958   7.425
54054W        W 6950  18.741  33.817   8.830
54055W        W 6951  22.973  29.491   8.924
54056W        W 6952  33.883  22.869  10.214
54057W        W 6953  19.954  14.768   1.144
54058W        W 6954  16.540   0.691   9.758
54059W        W 6955   8.228  23.849   7.946
54060W        W 6956  34.746  27.901   9.903
54061W        W 6957  12.985  28.551  10.311
54062W        W 6958   5.748  34.261   1.052
54063W        W 6959  35.464   2.601   1.529
54064W        W 6960   3.716   2.674   0.334
54065W        W 6961   3.811  29.592   7.443
54066W        W 6962  24.792   0.308   2.634
54067W        W 6963   3.828   2.905   9.215
54068W        W 6964  35.688  31.365   3.925
54069W        W 6965  24.282   9.704   0.016
54070W        W 6966   3.684  14.077   7.850
54071W        W 6967   2.557  29.741   8.640
54072W        W 6968  13.751  29.169   8.513
54073W        W 6969  16.568   0.063   9.554
54074W        W 6970  12.002   2.523   1.805
54075W        W 6971  29.470  12.777   8.213
54076W        W 6972  26.286  23.421   9.160
54077W        W 6973  17.665  22.200   1.231
54078W        W 6974   1.901  30.081   1.754
54079W        W 6975  31.483   4.932   8.351
54080W        W 6976  17.309  10.662  10.027
54081W        W 6977  14.282   8.232   9.725
54082W        W 6978  30.512  24.208   3.429
54083W        W 6979  16.616  25.284   8.704
54084W        W 6980  29.364   4.665   7.806
54085W        W 6981   9.415  28.965   7.293
54086W        W 6982  24.113  26.852   2.198
54087W        W 6983  35.029  17.092   1.113
54088W        W 6984  24.566  17.072  10.318
54089W        W 6985   5.585  22.770   2.186
54090W        W 6986  34.088  16.768   7.944
54091W        W 6987  27.540  10.416   9.992
54092W        W 6988   1.272   0.744   2.596
54093W        W 6989  30.609  19.563   3.474
54094W        W 6990   1.427   1.818   1.668
54095W        W 6991  33.670  12.115   9.960
54096W        W 6992  10.470  24.408   1.815
54097W        W 6993   0.654  14.209   8.554
54098W        W 6994   9.310   2.422   9.075
54099W        W 6995   2.321  28.443   8.152
54100W        W 6996  33.372   3.720   1.085
54101W        W 6997  19.868   6.857   0.690
54102W        W 6998  24.788  35.427   1.580
54103W        W 6999  10.205   8.392   8.269
54104W        W 7000  16.949   7.795   1.869
54105W        W 7001  16.870  27.727   1.415
54106W        W 7002   2.889   5.379   2.994
54107W        W 7003  20.520  28.745   2.809
54108W        W 7004   9.456  15.185   9.888
54109W        W 7005  10.194  30.709   0.724
54110W        W 7006  19.286  33.075   0.703
54111W        W 7007  34.745  16.655   2.139
54112W        W 7008   3.450  30.901   2.368
54113W        W 7009   7.693  32.049   9.543
54114W        W 7010   7.502   3.953   8.828
54115W        W 7011  13.008  15.238   0.078
54116W        W 7012  31.034  16.228   0.826
54117W        W 7013   7.305  28.089   1.522
54118W        W 7014  26.430   2.389   1.102
54119W        W 7015  31.759  10.730   2.078
54120W        W 7016  18.121   4.618   1.542
54121W        W 7017   5.452  34.155   0.615
54122W        W 7018  26.329  13.788   0.601
54123W        W 7019  31.696  11.157   7.022
54124W        W 7020  16.158  34.501   9.245
54125W        W 7021  14.494   7.249   2.565
54126W        W 7022  21.965  16.735   2.802
54127W        W 7023  30.271  16.362   3.551
54128W        W 7024  31.939  10.222   7.356
54129W        W 7025  23.172  10.652   1.988
54130W        W 7026   5.558   2.423   2.434
54131W        W 7027   0.665  22.486   1.863
54132W        W 7028  20.655  14.853   2.590
54133W        W 7029   3.177  35.753   2.624
54134W        W 7030   6.409  20.631   9.186
54135W        W 7031  25.154  24.280   2.338
54136W        W 7032  31.908  35.379   2.140
54137W        W 7033   3.632  21.835   0.274
54138W        W 7034   7.005  30.300   8.098
54139W        W 7035  30.385  22.157  10.144
54140W        W 7036   7.682   1.584   0.986
54141W        W 7037  15.886  15.796   0.941
54142W        W 7038   5.334  30.434   9.320
54143W        W 7039  19.839  29.470   9.131
54144W        W 7040  27.540  29.439   9.846
54145W        W 7041  35.676   0.933   8.621
54146W        W 7042   6.149  14.482   8.694
54147W        W 7043   8.895  21.855   2.548
54148W        W 7044   9.444   2.460  10.179
54149W        W 7045  31.104  18.682   9.322
54150W        W 7046   3.706  18.712   0.908
54151W        W 7047  21.932   8.095   1.693
54152W        W 7048   0.935  24.120   3.183
54153W        W 7049   3.152   6.962   1.413
54154W        W 7050   8.455   1.599   1.386
54155W        W 7051  27.768   7.121   9.919
54156W        W 7052  26.930  29.127   0.665
54157W        W 7053  15.777   7.724  10.150
54158W        W 7054  31.803  29.717   2.986
54159W        W 7055  17.702  33.703   9.031
54160W        W 7056  29.041  24.825   1.460
54161W        W 7057   2.868  14.936   1.254
54162W        W 7058  28.056  14.123   8.263
54163W        W 7059  25.445  33.091   1.354
54164W        W 7060   9.184  21.789   2.014
54165W        W 7061  33.774  35.542   1.664
54166W        W 7062  24.238   6.089  10.165
54167W        W 7063  28.963  19.325   1.597
54168W        W 7064  23.712  29.722   7.475
54169W        W 7065  31.082  22.960   0.276
54170W        W 7066  23.772  26.761   8.832
54171W        W 7067  35.301  11.938   7.740
54172W        W 7068   6.592  25.932   8.765
54173W        W 7069   4.164  18.479   0.488
54174W        W 7070   7.235  10.809   6.878
54175W        W 7071   3.068  22.884   9.545
54176W        W 7072   8.080   8.296   1.602
54177W        W 7073  21.996  25.227   2.869
54178W        W 7074  25.853  18.292   8.331
54179W        W 7075  23.508  26.625   0.619
54180W        W 7076   1.233   8.190   2.307
54181W        W 7077  21.663  35.346   8.896
54182W        W 7078   6.766  27.829   2.226
54183W        W 7079  34.937  17.660   1.155
54184W        W 7080   6.016  17.258   2.044
54185W        W 7081  23.694  19.684   0.947
54186W        W 7082  11.400  17.536   0.776
54187W        W 7083  33.112  27.613   8.354
54188W        W 7084   3.667  23.773   2.204
54189W        W 7085   8.125  24.744   7.997
54190W        W 7086   2.756  11.307   2.620
54191W        W 7087  23.818  32.129   3.160
54192W        W 7088   1.589  27.456   9.234
54193W        W 7089  24.845   2.889   3.063
54194W        W 7090  16.315  13.114   2.275
54195W        W 7091   9.490  31.753   9.044
54196W        W 7092  28.342   3.063   1.107
54197W        W 7093   3.351  28.722   2.224
54198W        W 7094  34.942  24.700   8.915
54199W        W 7095  14.769   4.064   1.738
54200W        W 7096  31.975  34.389   2.114
54201W        W 7097  19.899  32.420   1.117
54202W        W 7098   7.587  16.889   9.678
54203W        W 7099   8.688  13.805   7.405
54204W        W 7100   0.846  20.293   2.026
54205W        W 7101   8.195   9.611   2.869
54206W        W 7102  21.861   9.496   8.003
54207W        W 7103  11.492  26.011   0.322
54208W        W 7104  35.387  31.260   9.310
54209W        W 7105   5.111  21.058   2.199
54210W        W 7106   3.180  26.297   2.705
54211W        W 7107   1.883  29.043   9.663
54212W        W 7108  32.702  28.061   9.662
54213W        W 7109  20.124   1.178   3.001
54214W        W 7110   2.680  25.623   0.883
54215W        W 7111  22.280  12.288   2.383
54216W        W 7112   5.350  33.943   2.031
54217W        W 7113  11.125  10.070   0.386
54218W        W 7114  20.240  21.779   0.885
54219W        W 7115  26.300  35.781   8.737
54220W        W 7116   3.011  19.398  10.046
54221W        W 7117  10.054  32.943   8.696
54222W        W 7118  10.316  28.976   6.962
54223W        W 7119  23.474  15.965   2.860
54224W        W 7120   0.505  22.075   2.339
54225W        W 7121   7.913   4.797   9.633
54226W        W 7122  32.727  31.396   0.014
54227W        W 7123  15.709  24.377   2.319
54228W        W 7124  19.116   5.505   3.088
54229W        W 7125  11.625  16.451   0.880
54230W        W 7126  14.327   1.925   2.063
54231W        W 7127  35.144  13.460   9.869
54232W        W 7128  12.522  33.589   3.270
54233W        W 7129  23.147  26.482   0.917
54234W        W 7130  28.400  32.346   6.617
54235W        W 7131   8.842  33.680   0.707
54236W        W 7132  26.907   6.538  10.282
54237W        W 7133  20.903   8.567   8.318
54238W        W 7134  11.475  10.404   7.255
54239W        W 7135  13.131  11.993   0.276
54240W        W 7136  13.712  16.256   7.613
54241W        W 7137  31.529   0.622   2.346
54242W        W 7138   0.635   3.698   9.955
54243W        W 7139  25.174  17.288   2.642
54244W        W 7140  21.432  11.645   1.416
54245W        W 7141   8.871   0.313   1.841
54246W        W 7142  28.718   8.393   9.583
54247W        W 7143  29.759  23.515   8.685
54248W        W 7144  22.964   9.709   8.264
54249W        W 7145  33.724  23.520   9.522
54250W        W 7146  14.504   4.353  10.300
54251W        W 7147  10.423  22.419   0.309
54252W        W 7148   8.472  31.678   7.147
54253W        W 7149  12.744  12.251   9.760
54254W        W 7150  18.878  34.303   0.151
54255W        W 7151   2.484  33.061   0.744
54256W        W 7152  13.477  27.263   0.446
54257W        W 7153  22.648  30.214   2.631
54258W        W 7154   6.342  28.715   2.046
54259W        W 7155   6.161  17.140   9.355
54260W        W 7156  28.417  29.079   8.610
54261W        W 7157   6.237  13.783   3.769
54262W        W 7158   4.746  21.109   2.587
54263W        W 7159   7.051  30.809   8.106
54264W        W 7160  21.302   7.779   8.568
54265W        W 7161  24.754  26.807  10.255
54266W        W 7162  12.355   4.428   1.012
54267W        W 7163  20.721  26.225   4.029
54268W        W 7164  26.448  20.713   2.893
54269W        W 7165  25.918  16.466   1.757
54270W        W 7166  33.050   3.790   1.439
54271W        W 7167  19.634  22.092   9.741
54272W        W 7168  14.995   9.013   9.816
54273W        W 7169   4.193  16.207   0.631
54274W        W 7170  10.890  17.454   9.019
54275W        W 7171   6.972  25.828   8.221
54276W        W 7172  15.638   1.340  10.148
54277W        W 7173  24.618  14.010   9.223
54278W        W 7174  19.418  12.960   2.124
54279W        W 7175   2.541  31.858  10.195
54280W        W 7176  31.376  12.825   7.708
54281W        W 7177  12.397  16.531   9.432
54282W        W 7178  35.455   3.085   1.191
54283W        W 7179  35.214  30.707   8.998
54284W        W 7180  11.263  17.886   9.127
54285W        W 7181  12.017   9.037   7.841
54286W        W 7182  33.638  28.439   8.415
54287W        W 7183  26.115  28.851   7.713
54288W        W 7184  26.089  12.546   9.634
54289W        W 7185  26.763  30.763   1.003
54290W        W 7186  35.338   8.326   1.599
54291W        W 7187   8.981  16.033   0.187
54292W        W 7188  34.555  17.640   2.443
54293W        W 7189  26.942  13.732   7.948
54294W        W 7190  29.978  17.105   9.915
54295W        W 7191   8.609  11.897   8.454
54296W        W 7192   7.322  32.418   2.115
54297W        W 7193  12.712  30.134   1.683
54298W        W 7194  20.496   1.512   2.890
54299W        W 7195  14.091   6.771   8.776
54300W        W 7196  23.784  20.138   0.614
54301W        W 7197   3.047  30.088   0.125
54302W        W 7198   6.608  23.802   9.971
54303W        W 7199  22.478   1.923   2.267
54304W        W 7200  27.896   1.888   9.205
54305W        W 7201  18.209  32.352   0.485
54306W        W 7202  14.629  26.381  10.129
54307W        W 7203  27.179  28.021   0.607
54308W        W 7204  35.022  15.435   9.889
54309W        W 7205  18.421  35.563   8.145
54310W        W 7206  35.328  24.344   2.754
54311W        W 7207   2.238  27.822   7.568
54312W        W 7208   0.154  22.081   3.968
54313W        W 7209  24.011  31.709   7.507
54314W        W 7210  23.735  10.631   2.655
54315W        W 7211  23.158  25.623   2.050
54316W        W 7212   8.002  31.885   7.390
54317W        W 7213  31.807  30.730   0.738
54318W        W 7214  32.310  35.999   8.073
54319W        W 7215  28.670  10.990   7.363
54320W        W 7216  20.253  21.332   8.150
54321W        W 7217  29.872  11.366   1.544
54322W        W 7218   5.051   3.425   1.216
54323W        W 7219  28.991  27.798   2.523
54324W        W 7220   1.667  24.372   2.290
54325W        W 7221  24.834   7.674   9.510
54326W        W 7222  17.049  35.457   8.415
54327W        W 7223  11.317   3.522   0.341
54328W        W 7224   6.637  10.533   0.501
54329W        W 7225   8.193   6.722   2.725
54330W        W 7226  13.687  25.109   2.079
54331W        W 7227  29.603   4.761   9.586
54332W        W 7228  13.984  31.243   3.451
54333W        W 7229   2.896   6.859   2.023
54334W        W 7230  19.136   0.476   8.122
54335W        W 7231  17.395  24.954   3.677
54336W        W 7232  28.824   5.839   1.369
54337W        W 7233  31.303   0.984  10.029
54338W        W 7234   0.386   1.569   0.561
54339W        W 7235  12.811  21.757   9.523
54340W        W 7236   0.019  12.683   0.887
54341W        W 7237  29.269  23.374   0.041
54342W        W 7238   8.080   4.930   1.482
54343W        W 7239   3.913  10.863   8.286
54344W        W 7240  30.495  14.728   8.627
54345W        W 7241  12.746  26.002   9.094
54346W        W 7242  26.004  33.477   7.857
54347W        W 7243   0.703  20.432   8.416
54348W        W 7244  29.339   8.906   8.223
54349W        W 7245  35.065  24.338   1.530
54350W        W 7246  34.504  30.545   8.575
54351W        W 7247  18.447  19.655   0.782
54352W        W 7248   1.066  29.515   0.718
54353W        W 7249   0.722  23.585   8.339
54354W        W 7250  18.456  31.917   9.666
54355W        W 7251  21.848  25.954   0.404
54356W        W 7252   0.672  29.222   9.285
54357W        W 7253  11.213  34.183   2.910
54358W        W 7254  17.317  26.064   2.370
54359W        W 7255   0.668  13.208   9.973
54360W        W 7256   8.567  24.723   7.408
54361W        W 7257  35.252   0.836   3.427
54362W        W 7258   5.204  17.799   1.249
54363W        W 7259  21.334  20.233   2.127
54364W        W 7260  32.315  19.663   9.834
54365W        W 7261   1.035  15.270   1.818
54366W        W 7262   1.611  21.092   9.597
54367W        W 7263  13.406  28.086   0.092
54368W        W 7264  11.543  31.318   1.822
54369W        W 7265  28.889  35.240   0.548
54370W        W 7266  10.026  20.534   0.054
54371W        W 7267   7.379   4.830   2.857
54372W        W 7268  19.702   9.394   9.810
54373W        W 7269  25.057  22.115   1.653
54374W        W 7270  29.471   6.360   1.884
54375W        W 7271  10.885  16.372   9.862
54376W        W 7272  12.386   2.619   7.872
54377W        W 7273  33.876   9.798   8.695
54378W        W 7274   2.490  22.189   2.989
54379W        W 7275  14.640  26.577   3.265
54380W        W 7276  31.235  30.341   2.138
54381W        W 7277  15.909  24.113   8.968
54382W        W 7278  32.589  12.000   9.726
54383W        W 7279   6.447  32.614   7.868
54384W        W 7280  13.307  16.039   9.821
54385W        W 7281   5.367   7.060   9.974
54386W        W 7282  15.676  20.359   3.411
54387W        W 7283  16.844  27.848   9.605
54388W        W 7284  14.531  25.510   9.807
54389W        W 7285  33.684  33.236   7.839
54390W        W 7286  31.929  18.214   0.652
54391W        W 7287   3.226  32.716   1.624
54392W        W 7288  26.556   2.755   0.170
54393W        W 7289  16.333  27.616   1.394
54394W        W 7290  29.732  19.908   8.990
54395W        W 7291  26.780  17.800   9.250
54396W        W 7292  32.362  16.840   2.424
54397W        W 7293  15.168   9.179   8.002
54398W        W 7294  18.338  10.518   9.082
54399W        W 7295   0.724  17.147   1.934
54400W        W 7296  25.284  14.723   3.300
54401W        W 7297   2.825  14.397   1.991
54402W        W 7298  19.989   8.625   1.678
54403W        W 7299   9.316   0.943   9.933
54404W        W 7300  30.690  15.411   8.623
54405W        W 7301   3.253  29.441   7.369
54406W        W 7302   5.129  27.444   3.328
54407W        W 7303  35.298  29.158   9.647
54408W        W 7304  15.474  13.251   2.727
54409W        W 7305   2.109  19.678   8.712
54410W        W 7306   2.987  34.453   1.074
54411W        W 7307  34.263  18.897   1.124
54412W        W 7308  10.227  15.726   2.352
54413W        W 7309  16.611  34.445   8.433
54414W        W 7310  12.022  30.818   0.189
54415W        W 7311  15.582   6.362   3.202
54416W        W 7312   0.088  21.797   8.800
54417W        W 7313   1.157  32.146   3.349
54418W        W 7314  34.887  28.960   7.559
54419W        W 7315   1.139  16.743   8.823
54420W        W 7316  34.031   1.124   1.409
54421W        W 7317   6.975  16.946   7.823
54422W        W 7318   6.066  32.159   1.840
54423W        W 7319   3.128  14.184   3.367
54424W        W 7320  17.453   6.448   9.889
54425W        W 7321   9.841   1.281   2.115
54426W        W 7322  13.522   6.102   3.457
54427W        W 7323   9.038   5.981   8.089
54428W        W 7324   7.481  26.766   8.298
54429W        W 7325  32.937  19.517   2.080
54430W        W 7326  18.772  35.519   8.489
54431W        W 7327  11.764  23.704   2.671
54432W        W 7328  31.489  16.653   8.050
54433W        W 7329  31.029  31.409   0.532
54434W        W 7330  25.149   4.757   0.934
54435W        W 7331  13.155   4.906   1.509
54436W        W 7332  10.085   0.908   0.003
54437W        W 7333  19.487   7.295   1.892
54438W        W 7334  25.295  23.779   7.434
54439W        W 7335  20.528  14.644   0.436
54440W        W 7336  16.939  14.451   9.889
54441W        W 7337  17.874  11.949   1.287
54442W        W 7338   6.734  22.140   9.239
54443W        W 7339  28.345  34.549   9.111
54444W        W 7340   9.884  30.001   0.091
54445W        W 7341  14.151  10.483   0.557
54446W        W 7342  25.731  30.714   9.876
54447W        W 7343  24.175  17.454   9.074
54448W        W 7344  17.278   1.135   7.681
54449W        W 7345   9.360  32.332   8.232
54450W        W 7346  22.253  30.226   1.667
54451W        W 7347  18.601  22.011   0.561
54452W        W 7348  25.661   6.049   2.480
54453W        W 7349   2.360  28.236   0.538
54454W        W 7350  28.174   9.214   8.691
54455W        W 7351  22.066  35.653   9.458
54456W        W 7352  24.975  20.604   3.682
54457W        W 7353  24.121  13.820   9.251
54458W        W 7354  21.907   1.571   0.566
54459W        W 7355  19.340  23.897   7.580
54460W        W 7356   8.906  30.635   2.348
54461W        W 7357  22.110  19.371   1.986
54462W        W 7358  34.928  34.830   1.073
54463W        W 7359   1.324  26.106   2.735
54464W        W 7360  21.845   3.106   2.722
54465W        W 7361  30.064   8.903   2.021
54466W        W 7362  31.946  18.064   8.394
54467W        W 7363  24.735  19.427   9.079
54468W        W 7364  25.165  23.267   0.890
54469W        W 7365  24.297  35.520   7.665
54470W        W 7366   3.545   6.099   1.912
54471W        W 7367  13.765   4.399   1.969
54472W        W 7368  33.394  18.965   0.490
54473W        W 7369  18.800  31.142   1.995
54474W        W 7370  20.773  22.334   9.669
54475W        W 7371   1.376  28.019   1.408
54476W        W 7372  15.832  27.345   9.505
54477W        W 7373  26.313  27.100   7.200
54478W        W 7374  16.807   2.277   9.647
54479W        W 7375   2.639   8.474   0.372
54480W        W 7376  14.184   6.288  10.294
54481W        W 7377  14.401  18.760  10.119
54482W        W 7378   5.661   7.404   7.781
54483W        W 7379  12.651   2.456   1.968
54484W        W 7380   9.577   2.135   8.358
54485W        W 7381  22.114   0.964   8.699
54486W        W 7382  30.296  21.121   8.457
54487W        W 7383   5.227  24.485   7.825
54488W        W 7384  24.023  12.103   0.942
54489W        W 7385  29.920  27.122   1.825
54490W        W 7386  23.633  12.211   7.786
54491W        W 7387   3.266   9.530   8.691
54492W        W 7388  22.880  23.130   9.489
54493W        W 7389   5.352   5.125   1.238
54494W        W 7390   9.897   7.261   9.602
54495W        W 7391  22.697  33.638   0.618
54496W        W 7392  28.475  25.263   9.050
54497W        W 7393   8.110  19.437   0.827
54498W        W 7394  13.983  14.598   3.096
54499W        W 7395   7.512   8.894   9.104
54500W        W 7396   4.113  21.089   1.492
54501W        W 7397   8.423  28.265   0.735
54502W        W 7398   0.698  26.568   1.065
54503W        W 7399  11.213  21.988  10.002
54504W        W 7400  13.586   4.286   2.821
54505W        W 7401  22.253  33.523   2.502
54506W        W 7402  15.660  32.104   7.871
54507W        W 7403  16.939   0.786  10.115
54508W        W 7404  23.692   5.848  10.215
54509W        W 7405  18.966  28.854   1.954
54510W        W 7406  23.765   0.516   0.217
54511W        W 7407   3.061  33.945   0.878
54512W        W 7408   6.403  16.745   9.214
54513W        W 7409  16.315  10.398   0.687
54514W        W 7410  16.874  13.114  10.268
54515W        W 7411  34.930   7.882   0.048
54516W        W 7412  28.548  21.136   0.239
54517W        W 7413  13.018  19.410   0.161
54518W        W 7414  16.264  29.345   7.461
54519W        W 7415   2.895  13.871   2.077
54520W        W 7416  28.729  22.762  10.062
54521W        W 7417  11.219  17.227   9.367
54522W        W 7418  19.307  16.581   2.490
54523W        W 7419  29.647  17.841   1.114
54524W        W 7420   4.141   9.594  10.114
54525W        W 7421   5.433  14.038   0.390
54526W        W 7422   9.394  34.272   8.029
54527W        W 7423   5.788   8.667   3.311
54528W        W 7424   6.846  26.406   1.314
54529W        W 7425  19.172  12.114   9.127
54530W        W 7426  28.339  23.436   8.752
54531W        W 7427  10.213  14.444   0.003
54532W        W 7428   5.733   7.785   0.266
54533W        W 7429  14.081   3.477   1.095
54534W        W 7430   0.271  35.969   2.404
54535W        W 7431   2.386  21.009   8.129
54536W        W 7432  34.826  27.388   9.542
54537W        W 7433  28.813  31.621   9.492
54538W        W 7434   9.256   1.243   8.098
54539W        W 7435  18.377  32.162   1.729
54540W        W 7436   1.702  23.647   2.448
54541W        W 7437   7.600  18.521   2.370
54542W        W 7438  11.842  10.611   2.245
54543W        W 7439  24.938  22.382  10.189
54544W        W 7440  16.319  26.609   1.434
54545W        W 7441  31.877   6.613   8.301
54546W        W 7442   2.528  14.629   8.688
54547W        W 7443  21.968  17.693   8.735
54548W        W 7444   0.667  26.946   1.987
54549W        W 7445  21.976  27.980   1.202
54550W        W 7446  12.450  32.509   4.007
54551W        W 7447  17.421   5.227   9.101
54552W        W 7448  23.382  11.698   9.836
54553W        W 7449  35.557  26.420   0.386
54554W        W 7450  21.457  22.062   7.852
54555W        W 7451  20.266  13.084   2.787
54556W        W 7452   8.928  30.181   1.160
54557W        W 7453  20.247  28.493   9.110
54558W        W 7454  11.535  25.934   7.461
54559W        W 7455  21.845  33.442   3.317
54560W        W 7456  18.683  11.703   2.475
54561W        W 7457  17.646  18.647   9.923
54562W        W 7458  18.247  31.104   7.503
54563W        W 7459  23.643  22.747   3.398
54564W        W 7460   4.470  14.379   0.612
54565W        W 7461  18.367  22.668   0.830
54566W        W 7462  13.473  16.651   0.048
54567W        W 7463   0.853  23.635   0.429
54568W        W 7464  16.431  32.729   7.173
54569W        W 7465  17.535  20.684   0.446
54570W        W 7466  20.771   4.094   7.739
54571W        W 7467  15.923   7.134   2.640
54572W        W 7468  17.187  31.630   8.040
54573W        W 7469  31.642  16.933   0.212
54574W        W 7470  13.297  11.969   3.492
54575W        W 7471  16.085   8.564   9.540
54576W        W 7472  22.543  11.313   9.976
54577W        W 7473  23.032   8.377   0.241
54578W        W 7474   7.939  13.190   2.903
54579W        W 7475  35.229  15.978   3.745
54580W        W 7476   8.351  21.120   2.234
54581W        W 7477  11.323  12.325   0.161
54582W        W 7478  35.171  25.514   0.648
54583W        W 7479   8.685  34.439   8.619
54584W        W 7480   1.783  10.876   1.398
54585W        W 7481  34.076  32.959   8.729
54586W        W 7482  35.013  17.267   8.845
54587W        W 7483  26.444  33.445   1.238
54588W        W 7484   4.398  24.366   8.667
54589W        W 7485  11.464  23.607   2.161
54590W        W 7486   5.799   5.509   0.456
54591W        W 7487  30.936  17.554   0.967
54592W        W 7488  23.217  18.683   1.583
54593W        W 7489  10.250  22.699   8.489
54594W        W 7490  22.032  21.367   9.277
54595W        W 7491  16.605  18.750   2.803
54596W        W 7492  12.705   5.347   7.748
54597W        W 7493  34.404   9.959   8.445
54598W        W 7494  12.132  29.379   0.901
54599W        W 7495   4.689   0.158   1.115
54600W        W 7496  12.496  30.340   7.847
54601W        W 7497  22.013  15.561   3.640
54602W        W 7498  15.685   4.857   3.290
54603W        W 7499   4.271  14.891   9.079
54604W        W 7500  25.594  13.840   1.269
54605W        W 7501  26.918  23.416   1.241
54606W        W 7502  28.014  29.854   1.458
54607W        W 7503  23.102   2.565   2.030
54608W        W 7504  35.440  11.350   2.790
54609W        W 7505  18.253  29.429   1.294
54610W        W 7506   8.003   6.767   1.327
54611W        W 7507  29.090  33.980   9.393
54612W        W 7508  20.577  31.339   7.496
54613W        W 7509  34.240  33.936   1.059
54614W        W 7510   1.486  32.259   9.641
54615W        W 7511  14.276  12.530   2.380
54616W        W 7512  33.009   8.208   9.021
54617W        W 7513  35.444   4.668   1.382
54618W        W 7514  19.257  12.713   1.655
54619W        W 7515  32.547  16.445   2.122
54620W        W 7516   9.794  22.355   0.341
54621W        W 7517  17.861   3.278   2.784
54622W        W 7518   2.115  13.791   3.148
54623W        W 7519  18.653  28.118   8.062
54624W        W 7520   5.854  24.998   1.284
54625W        W 7521   4.601  22.246   9.699
54626W        W 7522  13.642  29.270   1.416
54627W        W 7523  33.000  10.202   0.530
54628W        W 7524  28.237  35.045   7.889
54629W        W 7525  23.698  29.452   0.768
54630W        W 7526   5.293  28.289   3.112
54631W        W 7527  19.064  26.438   8.407
54632W        W 7528   8.688  34.692   9.657
54633W        W 7529  34.003  19.676   3.296
54634W        W 7530  13.364  32.985   9.376
54635W        W 7531  14.756  28.985   0.330
54636W        W 7532  33.991  23.228   3.027
54637W        W 7533   3.699  11.611   8.772
54638W        W 7534  11.982  23.222   7.617
54639W        W 7535  11.326  19.471   0.616
54640W        W 7536  13.788  10.503   3.269
54641W        W 7537   7.618  31.469   2.199
54642W        W 7538  11.678   1.082   8.346
54643W        W 7539  24.121  18.799   8.245
54644W        W 7540  29.616  23.787   0.056
54645W        W 7541  34.673  30.397   4.159
54646W        W 7542  25.323  14.613   2.350
54647W        W 7543  16.236   8.391   1.880
54648W        W 7544  12.564  21.552   8.140
54649W        W 7545  34.053   3.581   0.251
54650W        W 7546   3.998  25.515  10.020
54651W        W 7547  17.719   9.198   9.623
54652W        W 7548  28.995   0.911   1.566
54653W        W 7549  11.996   7.412  10.237
54654W        W 7550   9.193  35.323   9.058
54655W        W 7551  12.834   4.525   1.245
54656W        W 7552  15.823  19.951   1.593
54657W        W 7553  35.794  31.329   4.508
54658W        W 7554  30.616   2.840   1.184
54659W        W 7555  16.438  18.236   9.925
54660W        W 7556  34.274   4.530  10.061
54661W        W 7557   9.835  23.444   1.002
54662W        W 7558   2.054  19.014   2.732
54663W        W 7559   8.964  12.200   2.668
54664W        W 7560  13.210  30.722  10.074
54665W        W 7561  17.030  32.162   2.099
54666W        W 7562  14.017  24.880   1.645
54667W        W 7563  15.892  26.901   7.847
54668W        W 7564   4.629  35.064   1.683
54669W        W 7565  22.150  11.241   2.001
54670W        W 7566  30.830  11.188  10.128
54671W        W 7567  12.844  33.357   1.217
54672W        W 7568  33.874  18.509   1.933
54673W        W 7569  34.554  31.082   9.904
54674W        W 7570  16.480  35.280   0.017
54675W        W 7571  22.033  35.088   0.947
54676W        W 7572  13.962   2.789   9.970
54677W        W 7573   5.647  12.951   2.033
54678W        W 7574   5.850  27.057   0.063
54679W        W 7575  17.919  11.012   2.141
54680W        W 7576  21.842   6.792   8.505
54681W        W 7577  20.121  33.896   3.295
54682W        W 7578  10.542  12.452   8.279
54683W        W 7579  32.072   0.667   9.793
54684W        W 7580  17.442  31.911   2.868
54685W        W 7581   0.363  23.282   3.031
54686W        W 7582   3.218  32.690   0.228
54687W        W 7583   2.782  16.676   0.343
54688W        W 7584  20.799  12.715   9.052
54689W        W 7585   0.058  25.503   2.451
54690W        W 7586  13.169  29.250   9.108
54691W        W 7587  24.562  31.624   8.040
54692W        W 7588  19.712  21.969   0.172
54693W        W 7589  21.028  31.149   1.028
54694W        W 7590  16.413  21.509   3.385
54695W        W 7591  16.106  24.860   1.150
54696W        W 7592  13.031  30.842   0.189
54697W        W 7593  25.269  19.812   8.919
54698W        W 7594   7.873  18.069   2.331
54699W        W 7595  31.655  22.682   0.340
54700W        W 7596   9.267  12.137   9.177
54701W        W 7597   8.881  13.970   9.855
54702W        W 7598  34.462  16.656   7.611
54703W        W 7599  22.795  24.460   8.966
54704W        W 7600  32.678  25.136   0.898
54705W        W 7601   7.003  30.651   9.510
54706W        W 7602  32.179   8.175   8.791
54707W        W 7603   5.372  13.962   3.276
54708W        W 7604  12.345   8.864   8.747
54709W        W 7605  34.098  10.217   8.772
54710W        W 7606   7.744  14.486   3.078
54711W        W 7607  20.990  30.308   1.167
54712W        W 7608  14.703   2.037   9.985
54713W        W 7609  15.580  18.889   8.941
54714W        W 7610   6.770  31.020   2.579
54715W        W 7611  23.449  21.432   9.346
54716W        W 7612   3.652   9.721  10.085
54717W        W 7613  30.827   0.100   8.256
54718W        W 7614   6.949  32.038   1.540
54719W        W 7615  17.190  16.251   1.562
54720W        W 7616   6.204  31.183   8.913
54721W        W 7617  35.919  17.981   0.077
54722W        W 7618  20.011  32.137   8.987
54723W        W 7619  14.308   7.838   8.542
54724W        W 7620   0.600  23.161   3.545
54725W        W 7621  11.927  23.497   9.028
54726W        W 7622  26.321  15.985   9.288
54727W        W 7623   2.072   9.997   9.564
54728W        W 7624  20.879  19.484   0.768
54729W        W 7625  25.562  31.174   7.951
54730W        W 7626  10.758  28.321   8.610
54731W        W 7627  19.833  32.326  10.302
54732W        W 7628   5.098  15.441   0.132
54733W        W 7629  27.074  28.045   1.446
54734W        W 7630  17.322  25.229   2.782
54735W        W 7631  31.712   5.359   0.504
54736W        W 7632   1.669  30.585   7.666
54737W        W 7633  11.424   1.280   1.510
54738W        W 7634  15.763  11.844   9.896
54739W        W 7635   4.357   6.600   1.519
54740W        W 7636  17.084   3.139   0.010
54741W        W 7637  34.986  10.780   9.389
54742W        W 7638  30.121  10.342   7.130
54743W        W 7639  14.077  25.517  10.019
54744W        W 7640  20.912  32.866   9.605
54745W        W 7641   8.245  32.725   8.999
54746W        W 7642   9.443  24.475  10.291
54747W        W 7643   9.674  20.073   0.573
54748W        W 7644   1.266  14.723   9.715
54749W        W 7645  17.680  22.593   2.492
54750W        W 7646   4.451  28.900   2.644
54751W        W 7647   4.023  26.618   2.506
54752W        W 7648  28.355  10.929   3.230
54753W        W 7649  32.944  35.266   8.105
54754W        W 7650   8.772  22.985   1.115
54755W        W 7651  19.264  32.047   1.825
54756W        W 7652   4.963  22.316   1.850
54757W        W 7653   9.773  12.083   0.505
54758W        W 7654  26.682  12.443   2.765
54759W        W 7655  19.226   7.247   0.991
54760W        W 7656  22.796   7.920   0.305
54761W        W 7657   5.265  29.117   0.437
54762W        W 7658   1.860   9.762   7.711
54763W        W 7659  27.968   2.960   8.567
54764W        W 7660  12.669  24.356   0.848
54765W        W 7661  25.763  13.700   9.454
54766W        W 7662  24.175  12.770   1.085
54767W        W 7663  18.963  30.507   3.360
54768W        W 7664  10.222  18.006   3.397
54769W        W 7665  20.588  28.601   1.874
54770W        W 7666   2.677   4.969   3.092
54771W        W 7667  19.074  15.915   2.903
54772W        W 7668   1.322  14.832   1.283
54773W        W 7669  15.196  26.339   8.716
54774W        W 7670   0.537   8.173   1.752
54775W        W 7671  18.096  26.878   0.179
54776W        W 7672  35.573  22.507   0.904
54777W        W 7673  29.398  30.941   7.498
54778W        W 7674  30.380  12.158   9.823
54779W        W 7675  24.604  32.961   0.466
54780W        W 7676  16.284   3.113   0.588
54781W        W 7677  13.205  33.974   9.621
54782W        W 7678  12.874  33.963  10.183
54783W        W 7679   8.211  35.796   7.542
54784W        W 7680   3.661  16.848   2.748
54785W        W 7681  15.950  22.420  10.082
54786W        W 7682  24.701  23.715   8.065
54787W        W 7683   2.693   7.451   3.108
54788W        W 7684  10.325  19.136  10.136
54789W        W 7685  19.619   9.354   1.823
54790W        W 7686  12.565  18.714   7.924
54791W        W 7687  25.604  18.104   1.984
54792W        W 7688   3.807   7.535   1.486
54793W        W 7689  14.861  14.071   2.355
54794W        W 7690   7.905  16.535   8.547
54795W        W 7691  20.940   4.710   9.414
54796W        W 7692  15.560  18.357  10.272
54797W        W 7693  19.642  27.272   2.724
54798W        W 7694  35.059   9.782   0.723
54799W        W 7695  28.126  16.845   1.419
54800W        W 7696   1.746  10.219   0.605
54801W        W 7697   3.775  32.237   0.966
54802W        W 7698  14.494  29.632   2.570
54803W        W 7699  28.794   6.534   2.649
54804W        W 7700  24.384   1.281  10.049
54805W        W 7701  25.607  20.869   2.388
54806W        W 7702   4.223   5.548   9.193
54807W        W 7703  34.883  31.826   7.975
54808W        W 7704   2.617  24.595   2.729
54809W        W 7705  20.164  15.048  10.065
54810W        W 7706  21.971   0.409   8.462
54811W        W 7707  22.272  19.480   2.524
54812W        W 7708   3.738  30.491   1.018
54813W        W 7709   5.889  31.793   2.292
54814W        W 7710  32.284  34.587   7.777
54815W        W 7711   6.241   2.393   1.934
54816W        W 7712  23.283  28.094   1.433
54817W        W 7713   9.641   2.802   0.761
54818W        W 7714   6.985  14.894   9.874
54819W        W 7715  32.749  30.921   8.650
54820W        W 7716  12.183   1.031   0.321
54821W        W 7717  23.997  35.682   0.478
54822W        W 7718  14.409  16.041   9.393
54823W        W 7719   8.711  33.204   9.784
54824W        W 7720   2.830  24.704   8.793
54825W        W 7721  28.592   4.418   0.872
54826W        W 7722  33.188  15.776   2.137
54827W        W 7723   2.245  16.553   8.994
54828W        W 7724  35.228  18.814   9.506
54829W        W 7725  21.470  15.854   0.497
54830W        W 7726  28.783   9.510   8.642
54831W        W 7727  15.719  28.839   8.319
54832W        W 7728  21.397   6.090   2.254
54833W        W 7729   8.444   5.289   3.205
54834W        W 7730  30.111  26.975   8.052
54835W        W 7731  21.027  28.670   1.629
54836W        W 7732  23.262   4.176   8.198
54837W        W 7733   6.020   6.096   8.350
54838W        W 7734  16.455  13.081   1.040
54839W        W 7735  33.225  32.080   1.688
54840W        W 7736  28.947  13.161   2.625
54841W        W 7737  32.933  12.820   1.674
54842W        W 7738   8.287  22.084   8.941
54843W        W 7739   8.196  35.276   2.163
54844W        W 7740   8.577  33.035   2.441
54845W        W 7741   2.389   2.398   1.949
54846W        W 7742   9.831   9.428   3.200
54847W        W 7743  16.237  25.811   1.079
54848W        W 7744   3.071  11.768   0.464
54849W        W 7745   6.853   9.262   1.410
54850W        W 7746   6.755  13.465   2.333
54851W        W 7747  14.059  19.191   9.234
54852W        W 7748  20.356  18.322   0.435
54853W        W 7749  13.811   5.281   2.172
54854W        W 7750   6.635  21.750   2.870
54855W        W 7751  29.258  12.282   7.910
54856W        W 7752  34.308   3.538   8.581
54857W        W 7753  17.168  21.899   2.997
54858W        W 7754  30.206  23.405   3.210
54859W        W 7755   1.526  30.880   1.124
54860W        W 7756  23.694   8.732   9.502
54861W        W 7757   6.692  26.737   0.091
54862W        W 7758  29.406   8.905   2.134
54863W        W 7759   5.789   1.133   0.630
54864W        W 7760   8.430   0.725   9.074
54865W        W 7761  10.087  18.220   2.989
54866W        W 7762   3.927  26.905   9.010
54867W        W 7763  25.137  19.474   2.982
54868W        W 7764   1.181  26.173   8.880
54869W        W 7765   7.524   5.614   1.072
54870W        W 7766  10.493  12.437  10.218
54871W        W 7767  28.963   4.352   1.913
54872W        W 7768  13.561  20.154   0.401
54873W        W 7769  18.412  28.623   0.317
54874W        W 7770   9.121  29.883   8.645
54875W        W 7771  22.816  12.443   7.903
54876W        W 7772  19.990  30.145   0.712
54877W        W 7773  28.479  33.652   9.458
54878W        W 7774  26.018  30.308   7.442
54879W        W 7775  35.841  21.537   0.573
54880W        W 7776  29.155   5.412   8.745
54881W        W 7777   0.341   2.123   0.769
54882W        W 7778  17.219   4.025   0.132
54883W        W 7779  20.957   9.123  10.059
54884W        W 7780   2.060  17.432   0.579
54885W        W 7781  33.313  20.291   1.877
54886W        W 7782  18.024  11.193   9.700
54887W        W 7783  29.953   8.424   0.042
54888W        W 7784   8.644  20.017   8.785
54889W        W 7785  14.485   4.191   9.088
54890W        W 7786   7.899  24.858  10.151
54891W        W 7787  15.922  12.168   1.134
54892W        W 7788  30.638  28.038   0.225
54893W        W 7789  20.463  10.671   7.774
54894W        W 7790  10.477  13.989   2.603
54895W        W 7791  30.416  24.818   2.974
54896W        W 7792   4.722   1.775   0.734
54897W        W 7793  27.189  15.085   0.550
54898W        W 7794   9.296  17.313   8.284
54899W        W 7795  17.134  13.513   2.729
54900W        W 7796  23.002  15.568   0.767
54901W        W 7797   4.527  17.431   7.588
54902W        W 7798   4.918  18.587   8.417
54903W        W 7799  10.951  16.259   3.724
54904W        W 7800   3.877  27.611   9.518
54905W        W 7801  10.807   8.829   1.420
54906W        W 7802  22.723   9.469   0.698
54907W        W 7803  24.956   4.294   2.822
54908W        W 7804   6.697   7.471   1.203
54909W        W 7805   5.049   5.116   9.187
54910W        W 7806  14.930  11.463   2.005
54911W        W 7807   8.525  29.722   9.999
54912W        W 7808   1.983   4.688   8.042
54913W        W 7809  13.186   4.441   9.893
54914W        W 7810  25.784  29.217   9.998
54915W        W 7811  35.857  13.473  10.287
54916W        W 7812  18.155  35.899   7.525
54917W        W 7813  16.839   5.170   2.328
54918W        W 7814  24.138  18.646   1.918
54919W        W 7815  26.963  20.795   8.207
54920W        W 7816   6.730  20.524   9.684
54921W        W 7817  10.384  34.495   2.586
54922W        W 7818  19.397   7.542  10.098
54923W        W 7819   0.749   1.493   8.176
54924W        W 7820   7.059   2.766   8.412
54925W        W 7821  18.071  35.536   9.822
54926W        W 7822   0.659   5.772   9.619
54927W        W 7823  14.487  28.414   2.622
54928W        W 7824  19.736  10.384   9.547
54929W        W 7825  29.622  29.572   2.502
54930W        W 7826  27.380  21.442   2.199
54931W        W 7827  13.715  26.168   9.378
54932W        W 7828   7.573  22.179   1.390
54933W        W 7829  24.431  32.726   9.333
54934W        W 7830  10.975  10.830   9.899
54935W        W 7831   7.473   1.286  10.159
54936W        W 7832   0.562  19.409   3.648
54937W        W 7833   7.982  19.931   7.622
54938W        W 7834  16.520  14.614   1.022
54939W        W 7835   3.073   6.104   7.595
54940W        W 7836  19.734  10.900  10.257
54941W        W 7837  23.852  10.434   9.909
54942W        W 7838  24.471  26.209   1.503
54943W        W 7839  13.429  35.218   2.615
54944W        W 7840  18.415  31.940   7.851
54945W        W 7841  14.570  30.131   2.805
54946W        W 7842  21.246  31.243   1.474
54947W        W 7843  14.462   7.750   0.297
54948W        W 7844   9.529   7.772  10.279
54949W        W 7845  33.742  20.570  10.248
54950W        W 7846   7.697  28.048   1.014
54951W        W 7847  17.497   9.840  10.164
54952W        W 7848  29.048  12.448   0.909
54953W        W 7849  27.346   5.359   8.523
54954W        W 7850  25.545  31.971   1.647
54955W        W 7851   2.283  12.130   8.965
54956W        W 7852   6.900   9.954   2.502
54957W        W 7853   0.296  26.202   9.510
54958W        W 7854  33.809  21.728   1.477
54959W        W 7855  35.770  32.854   0.747
54960W        W 7856   9.046  32.778   8.486
54961W        W 7857  24.044  35.364   9.216
54962W        W 7858  10.487  34.821   9.790
54963W        W 7859  32.861  25.779  10.091
54964W        W 7860   4.843  17.654   3.411
54965W        W 7861  20.384  15.830   0.655
54966W        W 7862  27.039  13.240   2.884
54967W        W 7863  24.092  10.822   0.921
54968W        W 7864  10.146  11.472   1.469
54969W        W 7865  34.647  16.005   9.244
54970W        W 7866  35.082  13.858   9.168
54971W        W 7867  33.461  26.826   9.449
54972W        W 7868  23.798  14.802   4.116
54973W        W 7869  10.841  23.053   9.258
54974W        W 7870  17.047  33.437   9.288
54975W        W 7871  18.775  23.550   0.568
54976W        W 7872   4.495   2.511   2.658
54977W        W 7873  10.891  13.369   8.123
54978W        W 7874   1.999  33.670   9.275
54979W        W 7875  25.408  26.036   8.136
54980W        W 7876  19.942   7.390   0.622
54981W        W 7877  21.295  27.153   1.832
54982W        W 7878  35.883  20.180   0.586
54983W        W 7879  18.157  25.468   1.681
54984W        W 7880  34.775  26.057   7.626
54985W        W 7881   5.714  32.861   8.866
54986W        W 7882   1.626  17.068   8.601
54987W        W 7883  35.412  16.835   0.642
54988W        W 7884   4.010  18.638   3.040
54989W        W 7885   4.136  33.462  10.002
54990W        W 7886  18.937  10.125   8.989
54991W        W 7887  14.690  12.269   2.065
54992W        W 7888   1.642   9.781   1.457
54993W        W 7889  31.287  20.114   0.149
54994W        W 7890  28.003   5.338  10.215
54995W        W 7891  22.744  17.805   8.675
54996W        W 7892  35.714  33.161   2.779
54997W        W 7893   6.173  11.202  10.280
54998W        W 7894  18.066  23.471   8.682
54999W        W 7895  22.643   6.292   3.827
55000W        W 7896  29.330  26.547   8.298
55001W        W 7897  15.849  17.510   0.183
55002W        W 7898   9.583  32.008   2.335
55003W        W 7899  30.401   2.913  10.008
55004W        W 7900  12.045  21.932   2.485
55005W        W 7901  30.004  10.235   8.130
55006W        W 7902  28.241  13.209   3.283
55007W        W 7903  26.863  20.989   9.091
55008W        W 7904   7.839  33.088   9.718
55009W        W 7905   1.399   7.304   9.290
55010W        W 7906  26.991  22.782   2.214
55011W        W 7907  19.298   7.792   0.196
55012W        W 7908  32.835   2.891   8.559
55013W        W 7909  31.474  15.427   1.770
55014W        W 7910   5.582  25.138   8.283
55015W        W 7911  21.137  14.233   9.102
55016W        W 7912  15.019  30.071   7.940
55017W        W 7913  32.353   5.068  10.034
55018W        W 7914   7.526  29.708   2.804
55019W        W 7915   5.975   4.682   0.369
55020W        W 7916  24.200  19.744   8.065
55021W        W 7917  25.205  30.102   7.300
55022W        W 7918   8.849  24.313   1.158
55023W        W 7919   0.135   2.954   0.872
55024W        W 7920  13.319  31.092   1.424
55025W        W 7921  23.125  31.485   9.987
55026W        W 7922  17.094  30.848   2.656
55027W        W 7923  24.302   5.599   1.441
55028W        W 7924   0.814  20.756   8.073
55029W        W 7925  34.840   2.333   3.235
55030W        W 7926  12.519  19.498   1.047
55031W        W 7927   4.804   6.082   9.777
55032W        W 7928  25.661  18.881   2.051
55033W        W 7929  27.187  16.146   9.873
55034W        W 7930  20.564  10.963   9.630
55035W        W 7931   9.462  21.471   2.282
55036W        W 7932  18.632   7.801   0.901
55037W        W 7933  15.516  30.218   8.064
55038W        W 7934  27.382   3.350   2.376
55039W        W 7935   6.310  11.675   2.797
55040W        W 7936   8.641  30.965   2.663
55041W        W 7937  12.744   3.568   0.690
55042W        W 7938  33.288   3.563   0.171
55043W        W 7939  28.363  18.699   0.354
55044W        W 7940   4.635  25.680   9.119
55045W        W 7941  23.700  31.930   0.447
55046W        W 7942  33.165   1.247   0.219
55047W        W 7943  15.875  26.929   8.386
55048W        W 7944  35.980  35.043   9.438
55049W        W 7945  10.320  30.250   0.804
55050W        W 7946   9.129  32.232   2.374
55051W        W 7947  11.479  13.579   1.183
55052W        W 7948  28.271  29.377   1.768
55053W        W 7949  20.723  25.733   2.119
55054W        W 7950  17.301  13.255   0.675
55055W        W 7951  21.002  34.993   2.274
55056W        W 7952   1.197   8.216   8.215
55057W        W 7953  19.568   6.274   3.556
55058W        W 7954  31.192   7.324   8.524
55059W        W 7955  27.770  34.425   0.893
55060W        W 7956  30.812  28.319   1.055
55061W        W 7957   4.608  10.244   1.922
55062W        W 7958  16.051  20.820   2.700
55063W        W 7959  35.134  28.990   0.273
55064W        W 7960  26.144  30.939   6.753
55065W        W 7961  21.830  23.288   2.736
55066W        W 7962  16.614  19.609   1.272
55067W        W 7963  34.007   2.947   9.960
55068W        W 7964  25.367  34.113   8.697
55069W        W 7965  11.104  25.361   9.090
55070W        W 7966  19.689  14.815   9.928
55071W        W 7967   1.041   1.866   9.406
55072W        W 7968   8.522  34.451   8.121
55073W        W 7969   6.949  13.744   1.753
55074W        W 7970  18.852  17.894   0.564
55075W        W 7971  10.906  12.705   0.601
55076W        W 7972  11.634  33.977   0.623
55077W        W 7973   5.721  14.790   8.524
55078W        W 7974  12.626  31.167   3.280
55079W        W 7975  17.255  34.510   2.568
55080W        W 7976  30.296  12.093   3.164
55081W        W 7977  34.873   7.446   2.464
55082W        W 7978  32.175  13.701   2.299
55083W        W 7979  31.914  18.657   0.827
55084W        W 7980   0.194  23.222   2.411
55085W        W 7981  13.840  16.947   8.565
55086W        W 7982  11.877  11.971   2.359
55087W        W 7983  34.590  32.802   2.877
55088W        W 7984  13.497  15.818   1.959
55089W        W 7985  13.562  34.236   9.865
55090W        W 7986  21.608  11.376   2.834
55091W        W 7987  24.500   4.184   8.220
55092W        W 7988  23.342  27.774   9.759
55093W        W 7989  35.257  16.317   0.580
55094W        W 7990   7.546  17.597   2.661
55095W        W 7991  29.665  33.253   8.275
55096W        W 7992   5.455   2.692   3.549
55097W        W 7993   4.061  17.324   1.299
55098W        W 7994   0.347  24.613   1.310
55099W        W 7995  12.062  22.195   0.744
55100W        W 7996  22.789  27.280   9.314
55101W        W 7997  28.063  34.925   3.188
55102W        W 7998   9.759   4.051   9.685
55103W        W 7999  24.691  24.325   2.514
55104W        W 8000  19.923   4.495   8.563
55105W        W 8001  30.204   4.623   9.788
55106W        W 8002  20.536  33.982   0.738
55107W        W 8003  18.205   0.087   0.366
55108W        W 8004  34.855   6.278   2.711
55109W        W 8005  12.673  25.193   7.631
55110W        W 8006  16.657  23.600   0.908
55111W        W 8007  28.688  18.781  10.240
55112W        W 8008  23.185  29.822   9.157
55113W        W 8009  31.027   3.998   7.742
55114W        W 8010   5.137  15.793   2.716
55115W        W 8011  29.049  32.176   0.455
55116W        W 8012   1.520   0.374   3.479
55117W        W 8013  14.724   6.694   1.733
55118W        W 8014  30.201  11.317   9.932
55119W        W 8015   6.264  35.351   7.928
55120W        W 8016  32.341   4.817   0.740
55121W        W 8017   4.715  14.796   1.771
55122W        W 8018  22.637  14.371   1.090
55123W        W 8019   2.962  17.623   9.832
55124W        W 8020  28.443   8.263  10.232
55125W        W 8021  27.131  26.211   0.606
55126W        W 8022  11.294  12.293   1.644
55127W        W 8023  18.377   7.562   8.807
55128W        W 8024  15.936   5.218   8.633
55129W        W 8025  17.006  20.671   0.516
55130W        W 8026  16.449  24.206   0.601
55131W        W 8027  17.373  26.216  10.236
55132W        W 8028   0.993  16.728   3.121
55133W        W 8029  28.381  23.201   2.845
55134W        W 8030  20.374   3.962   1.316
55135W        W 8031  33.593  17.392   0.955
55136W        W 8032  23.417  21.516   1.474
55137W        W 8033  17.031  16.051   8.754
55138W        W 8034  29.745  31.374   1.784
55139W        W 8035   3.168  32.945   3.563
55140W        W 8036   7.485  28.118   8.697
55141W        W 8037  20.309  20.039   0.245
55142W        W 8038  33.434  19.315   7.482
55143W        W 8039  30.304  26.198   1.642
55144W        W 8040  29.760  28.037   7.684
55145W        W 8041   2.620  11.529   8.195
55146W        W 8042   3.874  25.871   8.286
55147W        W 8043   2.748   6.385   7.881
55148W        W 8044  18.646  19.674   1.856
55149W        W 8045   9.023  27.237   8.512
55150W        W 8046  30.213   4.888   2.410
55151W        W 8047   9.740   8.605  10.122
55152W        W 8048  13.488  24.875   3.520
55153W        W 8049  14.864   5.799   9.971
55154W        W 8050  33.440  16.313   1.969
55155W        W 8051   9.465  26.571   2.063
55156W        W 8052  18.706   8.059   9.619
55157W        W 8053   2.622  27.602   1.948
55158W        W 8054  32.727  28.759   7.923
55159W        W 8055  14.221  16.586   3.731
55160W        W 8056   8.779  21.014   2.022
55161W        W 8057  31.125   1.277   7.240
55162W        W 8058  25.051  16.820   0.939
55163W        W 8059   3.643  26.845   1.301
55164W        W 8060  15.521  23.216   9.176
55165W        W 8061   2.784   3.384   9.632
55166W        W 8062   2.476  20.090   9.204
55167W        W 8063  27.593   4.574   8.034
55168W        W 8064  10.968  21.442   7.404
55169W        W 8065  26.254  31.642   7.543
55170W        W 8066  14.462  10.490   9.075
55171W        W 8067  15.950  20.114   2.052
55172W        W 8068  12.575   1.382   8.027
55173W        W 8069  18.335  10.379   1.567
55174W        W 8070   9.861  18.098   7.384
55175W        W 8071   8.862   7.588   0.525
55176W        W 8072  15.521  10.199   2.245
55177W        W 8073  12.446  15.069   0.686
55178W        W 8074   0.521  29.385  10.198
55179W        W 8075   5.419  33.515  10.285
55180W        W 8076  25.686   3.009   2.566
55181W        W 8077  27.904   7.614   1.661
55182W        W 8078  13.917  21.786   2.097
55183W        W 8079  29.302  30.509   7.784
55184W        W 8080   3.706   4.057   0.101
55185W        W 8081  14.507  33.027   9.419
55186W        W 8082  18.305  29.614   7.917
55187W        W 8083  10.658   9.944   0.728
55188W        W 8084  35.178  19.815   3.350
55189W        W 8085  19.428  16.267   3.073
55190W        W 8086   5.068  21.768   3.301
55191W        W 8087   6.607   2.021   1.920
55192W        W 8088   4.471  24.697   0.572
55193W        W 8089  25.108  17.042   8.741
55194W        W 8090  30.161  16.617   0.558
55195W        W 8091  14.563   3.826   9.796
55196W        W 8092  29.092  10.662   8.692
55197W        W 8093  20.353  19.118   8.252
55198W        W 8094  24.575  32.412   7.525
55199W        W 8095  16.189   2.364   9.598
55200W        W 8096  29.873  27.350   3.052
55201W        W 8097  29.294   2.574   3.193
55202W        W 8098  28.031  15.936   0.391
55203W        W 8099  13.694  33.124   8.640
55204W        W 8100  25.748  26.240   0.102
55205W        W 8101   2.557  21.828   9.423
55206W        W 8102  29.686   6.344   7.964
55207W        W 8103  31.058  19.931   0.644
55208W        W 8104   2.941   0.202   7.888
55209W        W 8105  14.701  34.395   1.720
55210W        W 8106   3.426  16.919   8.353
55211W        W 8107  32.638  26.369   9.550
55212W        W 8108   2.548  14.917   0.673
55213W        W 8109  13.468   3.521   0.264
55214W        W 8110  24.046   5.931   8.939
55215W        W 8111  13.917  18.234   1.884
55216W        W 8112   8.275  20.102   1.981
55217W        W 8113  16.892  18.347   7.958
55218W        W 8114  29.228  14.479   0.770
55219W        W 8115  32.060  29.136   7.735
55220W        W 8116   7.808  11.400   7.909
55221W        W 8117   7.334  10.184   7.468
55222W        W 8118  15.043  15.349   7.361
55223W        W 8119  35.005  23.120  10.106
55224W        W 8120  24.078  27.981   8.129
55225W        W 8121  27.752  32.804   2.956
55226W        W 8122  12.073  24.377   8.477
55227W        W 8123  22.642  15.908   2.043
55228W        W 8124  35.455  26.712  10.038
55229W        W 8125  29.107   2.089   9.425
55230W        W 8126  26.034  16.434   2.682
55231W        W 8127  32.436   0.264   1.887
55232W        W 8128  33.291  18.055   9.679
55233W        W 8129  19.896  12.911   2.066
55234W        W 8130  28.230   5.220   1.028
55235W        W 8131  15.386   4.872   3.730
55236W        W 8132  14.058  26.398   8.163
55237W        W 8133  19.053   0.148   7.204
55238W        W 8134   6.603  28.463   7.268
55239W        W 8135  27.544   1.846   2.905
55240W        W 8136  18.729  15.271   2.806
55241W        W 8137  14.249   6.012   2.681
55242W        W 8138  10.065   2.166   1.859
55243W        W 8139   4.650  30.391   9.000
55244W        W 8140  11.482   9.731   8.872
55245W        W 8141  10.784  32.852   1.547
55246W        W 8142  10.295  33.051   1.509
55247W        W 8143  28.604  16.595   3.992
55248W        W 8144   3.875  20.180   2.408
55249W        W 8145   9.061  19.143   8.931
55250W        W 8146   7.122  22.047   1.023
55251W        W 8147  25.435   7.197   2.997
55252W        W 8148  29.950  22.745   0.403
55253W        W 8149  15.031  29.311   2.597
55254W        W 8150  30.153  12.270   2.596
55255W        W 8151  13.011  24.740   0.814
55256W        W 8152   5.708   8.397   1.839
55257W        W 8153  25.123  26.363   0.766
55258W        W 8154  11.500  21.900   2.465
55259W        W 8155  10.940  11.529   8.747
55260W        W 8156   5.084   2.649   1.024
55261W        W 8157   9.412  19.838   8.379
55262W        W 8158   8.833  12.860   2.222
55263W        W 8159  13.645   2.468   7.119
55264W        W 8160  10.139  20.092   8.242
55265W        W 8161  24.520  16.592   0.080
55266W        W 8162  18.823   9.460   2.035
55267W        W 8163   2.196  24.912   1.124
55268W        W 8164   4.808  28.256   3.170
55269W        W 8165  26.576   0.978   0.521
55270W        W 8166  30.488  22.368   8.969
55271W        W 8167  34.414  33.343  10.178
55272W        W 8168  22.182  20.343   1.312
55273W        W 8169   1.525  15.065   0.563
55274W        W 8170  24.157  32.141   9.262
55275W        W 8171  28.234  11.630  10.067
55276W        W 8172   5.628   1.664   1.335
55277W        W 8173   1.037   6.323   1.241
55278W        W 8174  24.780   0.600   1.378
55279W        W 8175  26.141  30.134   9.133
55280W        W 8176  18.813  24.628   8.019
55281W        W 8177  15.303   4.448   7.960
55282W        W 8178  14.686  22.696   8.070
55283W        W 8179  15.215   6.605   9.648
55284W        W 8180  35.959  11.316   2.690
55285W        W 8181  12.893   7.010   8.983
55286W        W 8182  33.278   3.441   0.719
55287W        W 8183  27.356  21.264   0.399
55288W        W 8184  33.830   9.718   7.603
55289W        W 8185  20.047  34.061   2.810
55290W        W 8186  25.388  34.578   3.111
55291W        W 8187   8.846   7.327   2.605
55292W        W 8188   9.893   9.838  10.154
55293W        W 8189  19.640   0.799  10.219
55294W        W 8190  20.271  28.713  10.252
55295W        W 8191  18.849  25.768  10.184
55296W        W 8192   3.929   1.810   8.670
55297W        W 8193  14.220  29.427   0.214
55298W        W 8194  19.569  28.158   9.691
55299W        W 8195   5.896  34.180   2.517
55300W        W 8196  24.210   1.501   9.591
55301W        W 8197  20.405  12.525   0.547
55302W        W 8198  34.225  31.874   1.746
55303W        W 8199   0.603  16.131   3.323
55304W        W 8200  29.242  34.555   8.239
55305W        W 8201   7.560  21.955   9.453
55306W        W 8202  18.916  27.182  10.036
55307W        W 8203   6.789  34.219   8.344
55308W        W 8204  13.798   3.162   0.513
55309W        W 8205  24.868   0.003   2.201
55310W        W 8206  22.339  17.224  10.192
55311W        W 8207  24.292  31.301   7.737
55312W        W 8208  27.004  34.409   3.099
55313W        W 8209  30.413  10.130  10.258
55314W        W 8210  26.729  27.701   1.453
55315W        W 8211   2.189   0.458   0.455
55316W        W 8212  21.410   4.928   8.783
55317W        W 8213   7.534  12.772   8.574
55318W        W 8214   9.231  25.709   1.719
55319W        W 8215  29.807   2.061   3.395
55320W        W 8216   4.026   1.260   0.285
55321W        W 8217  27.133   6.985  10.243
55322W        W 8218   4.786  28.516   2.786
55323W        W 8219  33.353  31.237   1.345
55324W        W 8220   5.893  27.552   1.999
55325W        W 8221   8.104  14.967   1.499
55326W        W 8222  21.753  18.835   1.065
55327W        W 8223   6.734  21.333   8.817
55328W        W 8224   6.765  22.868   3.256
55329W        W 8225  21.810  25.997   3.320
55330W        W 8226   5.704  23.029   0.799
55331W        W 8227   0.549  15.324   3.648
55332W        W 8228   3.686   8.698   1.025
55333W        W 8229  33.927  32.674   0.133
55334W        W 8230  14.860   2.189   9.449
55335W        W 8231  26.524  22.291   9.384
55336W        W 8232  11.761  11.105   7.049
55337W        W 8233   6.290   9.856   9.663
55338W        W 8234   1.424  31.165   9.831
55339W        W 8235  15.466  28.983  10.125
55340W        W 8236   4.331  25.186   9.896
55341W        W 8237   3.207   7.670   9.587
55342W        W 8238  35.076  19.127   2.130
55343W        W 8239   1.295   0.793   1.409
55344W        W 8240   7.542   8.912   0.318
55345W        W 8241  22.259  29.847   9.576
55346W        W 8242  16.222  11.604   8.664
55347W        W 8243  18.861   1.735   8.578
55348W        W 8244   6.028  17.923   0.723
55349W        W 8245  13.964  30.604   2.391
55350W        W 8246  18.894   1.523   1.059
55351W        W 8247   2.345  33.422   8.305
55352W        W 8248  16.038   4.059   8.907
55353W        W 8249  29.777   2.655   8.250
55354W        W 8250  31.911   3.004   0.712
55355W        W 8251   9.658   5.642   2.747
55356W        W 8252   6.033  23.908   1.950
55357W        W 8253  14.431  25.400   0.076
55358W        W 8254  32.414  12.168   0.854
55359W        W 8255  23.266  20.265   3.772
55360W        W 8256  24.500  25.243   9.363
55361W        W 8257   8.489  31.725   3.855
55362W        W 8258  29.078  13.771   3.051
55363W        W 8259  26.869  12.846   8.155
55364W        W 8260  21.839  23.898   9.538
55365W        W 8261  34.122  31.241   9.136
55366W        W 8262  25.367  13.410   9.595
55367W        W 8263  23.581   5.229   8.640
55368W        W 8264  31.583   9.297   9.964
55369W        W 8265  33.705  34.846   2.103
55370W        W 8266  14.281  31.700   2.513
55371W        W 8267   3.861  31.196   8.355
55372W        W 8268  21.729   4.608   0.163
55373W        W 8269   1.119  29.112   1.660
55374W        W 8270   2.680  13.130   3.555
55375W        W 8271  32.490   9.589   2.213
55376W        W 8272  11.403  27.047   8.848
55377W        W 8273  28.060  33.882   2.155
55378W        W 8274  11.676  15.265   9.342
55379W        W 8275   3.438  29.165   2.474
55380W        W 8276  31.512   4.131   0.703
55381W        W 8277  22.673   0.580   1.873
55382W        W 8278   8.225  13.173   1.193
55383W        W 8279   2.255  28.933   7.806
55384W        W 8280  28.414  21.472   8.268
55385W        W 8281  15.781  30.355   0.458
55386W        W 8282  29.231   7.089  10.284
55387W        W 8283  15.907  31.375   0.561
55388W        W 8284  17.160  11.291   8.075
55389W        W 8285   0.679  18.644   8.782
55390W        W 8286  24.992  12.339   1.594
55391W        W 8287   6.472  31.628   1.040
55392W        W 8288  31.845  19.400   8.441
55393W        W 8289   8.912  28.788   0.978
55394W        W 8290  31.217  33.552   1.132
55395W        W 8291  12.519   7.039   9.434
55396W        W 8292   8.700  35.066   0.379
55397W        W 8293  20.363  10.612   0.236
55398W        W 8294  20.927  28.478   2.778
55399W        W 8295  13.618  24.758   8.057
55400W        W 8296  15.253  12.002   8.093
55401W        W 8297  28.572  34.051  10.189
55402W        W 8298  33.743  21.914   0.275
55403W        W 8299  34.387   9.638   3.231
55404W        W 8300  17.914  19.260   2.006
55405W        W 8301   1.801   0.969   1.716
55406W        W 8302  19.521  19.395   1.788
55407W        W 8303  17.984  18.992   2.632
55408W        W 8304  19.757   3.571   0.863
55409W        W 8305  30.078  22.462   2.910
55410W        W 8306  19.175   8.277   0.514
55411W        W 8307  28.412  30.530   1.084
55412W        W 8308  10.443  25.308   1.054
55413W        W 8309  32.161  16.646   0.030
55414W        W 8310  34.536   3.384   0.384
55415W        W 8311  17.591   7.099   3.273
55416W        W 8312   8.949  27.155   0.098
55417W        W 8313  23.272   5.323   0.796
55418W        W 8314  26.976  30.707   8.398
55419W        W 8315  30.365  33.399   7.920
55420W        W 8316  33.598  24.536   3.264
55421W        W 8317   3.183  35.224   8.229
55422W        W 8318  11.232  23.481   0.624
55423W        W 8319   4.135  27.014   3.022
55424W        W 8320   2.371  31.665   0.612
55425W        W 8321  25.203  12.509  10.174
55426W        W 8322  19.957  14.032  10.132
55427W        W 8323  17.888  25.559   3.775
55428W        W 8324  10.821  10.338   3.148
55429W        W 8325  27.456   2.698   8.118
55430W        W 8326   8.999   9.310   1.623
55431W        W 8327   2.993  10.435   8.315
55432W        W 8328  18.359  32.343   0.014
55433W        W 8329   4.098   2.781   9.622
55434W        W 8330   2.451  32.440   3.347
55435W        W 8331  14.709  20.580   8.524
55436W        W 8332  11.645  24.632   7.628
55437W        W 8333   8.781  26.978   9.972
55438W        W 8334   5.130  25.450   8.270
55439W        W 8335  22.996   4.129   2.157
55440W        W 8336  17.498   2.898   9.745
55441W        W 8337   9.397  27.056   2.150
55442W        W 8338  35.403   1.230   8.280
55443W        W 8339  17.166  12.075  10.299
55444W        W 8340  35.027   1.948   1.147
55445W        W 8341  24.196   2.684  10.023
55446W        W 8342  19.819   8.907   8.692
55447W        W 8343  17.831  12.563   2.620
55448W        W 8344   2.966  30.469   3.147
55449W        W 8345   4.549  35.574   1.630
55450W        W 8346  27.909  17.750   1.635
55451W        W 8347  20.300  35.561   2.967
55452W        W 8348  19.891  19.183   8.417
55453W        W 8349   3.718   0.545   7.359
55454W        W 8350  22.861  35.160   1.022
55455W        W 8351  28.995  15.388   8.925
55456W        W 8352  11.754  10.635   1.734
55457W        W 8353  32.859  19.859   9.823
55458W        W 8354   0.380  28.835   8.106
55459W        W 8355  30.102  10.908   8.926
55460W        W 8356  33.790   9.307   8.681
55461W        W 8357   7.382  31.951   8.169
55462W        W 8358  31.798   0.602   9.008
55463W        W 8359   9.273  35.938   8.469
55464W        W 8360   3.352  16.635   1.857
55465W        W 8361  17.698  15.117   2.526
55466W        W 8362   1.742  22.382   0.061
55467W        W 8363   2.587   6.775   8.854
55468W        W 8364   4.145  35.182   2.267
55469W        W 8365  24.676  19.118   0.037
55470W        W 8366  14.363  13.195   8.261
55471W        W 8367  13.186  14.043   1.199
55472W        W 8368  24.001   5.602   0.462
55473W        W 8369  16.886  13.986   6.925
55474W        W 8370  10.906  24.088   9.793
55475W        W 8371   1.458  12.426   9.388
55476W        W 8372  13.533  20.016   8.245
55477W        W 8373  33.036  12.926   3.221
55478W        W 8374  17.941  11.001   8.842
55479W        W 8375   9.466  32.254   9.210
55480W        W 8376  24.186  25.042   9.660
55481W        W 8377  35.977  34.053   1.115
55482W        W 8378  24.610  12.639  10.317
55483W        W 8379  31.708   2.919   9.279
55484W        W 8380   4.839  21.137   8.802
55485W        W 8381  11.032   0.596   3.287
55486W        W 8382  20.084  18.327   2.318
55487W        W 8383   6.537   1.064   8.379
55488W        W 8384   9.796  12.526   7.385
55489W        W 8385  33.535   7.721   1.596
55490W        W 8386  29.789  21.328   8.653
55491W        W 8387  28.823   3.078   1.190
55492W        W 8388   7.468   9.407   8.533
55493W        W 8389  26.741  26.700   7.706
55494W        W 8390  14.088  34.428   0.695
55495W        W 8391  12.754   6.166   7.678
55496W        W 8392  17.175  28.787   3.038
55497W        W 8393   5.690   3.853   8.985
55498W        W 8394  16.140   7.104   7.240
55499W        W 8395   3.697  22.541   3.024
55500W        W 8396  35.087   3.639   9.016
55501W        W 8397  11.429   9.818   2.611
55502W        W 8398   4.620   1.426   7.700
55503W        W 8399  33.997  21.787   3.697
55504W        W 8400   3.595  21.009   1.743
55505W        W 8401   7.649  25.590   6.974
55506W        W 8402   8.272   8.204   8.896
55507W        W 8403   1.300  12.610   1.936
55508W        W 8404  23.733   6.286   0.739
55509W        W 8405  15.317   9.184   0.045
55510W        W 8406  29.357  14.143   1.236
55511W        W 8407   1.400  24.190   3.581
55512W        W 8408  18.481  18.770   8.339
55513W        W 8409  24.093   4.857   8.161
55514W        W 8410  25.832  10.989   1.713
55515W        W 8411  19.127  28.229   8.186
55516W        W 8412  16.734  35.598   0.509
55517W        W 8413   9.470  20.515   8.254
55518W        W 8414   8.345  15.143   3.097
55519W        W 8415   0.038  29.534  10.130
55520W        W 8416  25.829   9.952  10.063
55521W        W 8417  23.002  34.558   2.632
55522W        W 8418   4.646  14.189   1.393
55523W        W 8419  20.421   8.710   8.570
55524W        W 8420  29.057  25.013   0.183
55525W        W 8421  10.128   5.295   8.473
55526W        W 8422   1.911  12.099   0.728
55527W        W 8423  19.658  14.373  10.288
55528W        W 8424  10.941  16.082   8.564
55529W        W 8425  33.395  13.028   2.276
55530W        W 8426  18.524   3.958   3.237
55531W        W 8427  28.904  13.643  10.158
55532W        W 8428  15.410   6.031   1.447
55533W        W 8429  15.712  24.241   1.671
55534W        W 8430   7.842  12.251   9.545
55535W        W 8431  33.060  21.585   7.796
55536W        W 8432  22.773  27.262  10.298
55537W        W 8433   1.672   7.017  10.272
55538W        W 8434   5.946   1.992   9.893
55539W        W 8435  30.449   5.559   0.292
55540W        W 8436   8.266  18.501   9.759
55541W        W 8437  31.933  22.032   2.137
55542W        W 8438   8.730  14.007   8.921
55543W        W 8439  30.423   5.145   1.483
55544W        W 8440  27.882  21.496   8.248
55545W        W 8441   1.259  29.397   2.669
55546W        W 8442  35.992   2.391   2.747
55547W        W 8443  28.795   7.294   9.302
55548W        W 8444  14.777   4.679   0.163
55549W        W 8445  10.582  13.096   2.255
55550W        W 8446   2.058   2.990   8.758
55551W        W 8447   1.995  15.913   2.081
55552W        W 8448   6.057  18.353   0.062
55553W        W 8449   4.147  15.249   0.230
55554W        W 8450   1.578   5.081   7.925
55555W        W 8451  18.644  22.314   9.663
55556W        W 8452   4.436  11.249  10.272
55557W        W 8453  27.556   4.170   1.251
55558W        W 8454   3.507  21.741   0.792
55559W        W 8455  31.066  35.191   8.229
55560W        W 8456  20.537  13.966   3.391
55561W        W 8457  22.021  29.479   2.423
55562W        W 8458  23.238  13.296   3.610
55563W        W 8459  12.912  32.656   8.623
55564W        W 8460  25.377  28.126   7.801
55565W        W 8461  23.451   3.436   2.106
55566W        W 8462  27.614  19.636   9.787
55567W        W 8463  29.642  26.535   8.739
55568W        W 8464  23.207  32.924   0.567
55569W        W 8465  30.223  30.593   7.945
55570W        W 8466   0.274  17.137   0.632
55571W        W 8467   1.478  19.666   0.868
55572W        W 8468  22.417  13.830   9.652
55573W        W 8469  30.035  16.526   9.950
55574W        W 8470   7.937  16.788   7.738
55575W        W 8471   7.962   9.157   9.700
55576W        W 8472  22.417  28.314   0.610
55577W        W 8473  18.650  25.785   0.391
55578W        W 8474  28.550   4.909   0.637
55579W        W 8475   7.317  22.754   9.050
55580W        W 8476  23.557   3.898   9.783
55581W        W 8477  15.410   5.495   8.908
55582W        W 8478  31.918  18.477   1.814
55583W        W 8479  23.565  27.728   8.495
55584W        W 8480  33.117  12.758   8.758
55585W        W 8481  27.938  35.486   1.762
55586W        W 8482  10.185  32.212   8.356
55587W        W 8483  20.545   9.737   0.523
55588W        W 8484  16.979   9.204   9.773
55589W        W 8485  29.290  27.968   3.041
55590W        W 8486  18.213   0.445  10.297
55591W        W 8487  21.756   1.106   0.548
55592W        W 8488   1.154   4.927   9.191
55593W        W 8489  20.362  28.722   1.427
55594W        W 8490  25.993  29.711   9.924
55595W        W 8491  34.473  29.647   2.203
55596W        W 8492   2.764   2.153   0.658
55597W        W 8493  27.004   8.245   2.787
55598W        W 8494   1.253  25.961   9.370
55599W        W 8495  19.163  16.473   0.587
55600W        W 8496  11.174  20.480   2.456
55601W        W 8497  14.350  31.071   8.338
55602W        W 8498  19.166  28.170   2.576
55603W        W 8499  23.305  33.952   1.515
55604W        W 8500  31.037  35.348   0.034
55605W        W 8501  20.933  29.272   0.708
55606W        W 8502  34.502   0.972   1.184
55607W        W 8503  14.994   8.825   8.969
55608W        W 8504  22.902  21.147   2.753
55609W        W 8505   3.899  21.099   2.156
55610W        W 8506   1.563   0.448   0.159
55611W        W 8507  26.029   9.354   8.128
55612W        W 8508  15.993  31.376   8.315
55613W        W 8509  15.728   5.374   2.416
55614W        W 8510   8.059  29.458   9.140
55615W        W 8511  22.638  19.891   3.941
55616W        W 8512  11.562  18.247   8.816
55617W        W 8513   3.247   4.444   0.894
55618W        W 8514   1.555  17.311   0.146
55619W        W 8515  20.126   2.027   9.590
55620W        W 8516  23.515  15.619   8.178
55621W        W 8517  12.948  10.351   3.721
55622W        W 8518   2.419  23.020   9.806
55623W        W 8519   2.486  22.623   0.433
55624W        W 8520  30.046  28.553   2.204
55625W        W 8521  15.900  25.246   8.426
55626W        W 8522  22.845  21.580   7.406
55627W        W 8523  12.740  18.301   2.358
55628W        W 8524   0.313  22.606   8.288
55629W        W 8525  14.651   3.749   9.224
55630W        W 8526   5.767  24.260   2.279
55631W        W 8527  29.425  29.655   0.951
55632W        W 8528  10.348  17.689   9.767
55633W        W 8529  33.960  26.202   9.949
55634W        W 8530  11.769  14.802   7.928
55635W        W 8531  27.701  16.418   9.690
55636W        W 8532  12.442  27.348   1.326
55637W        W 8533  26.338  16.331   9.845
55638W        W 8534  13.157   2.066   7.935
55639W        W 8535   6.976  23.618   9.582
55640W        W 8536  27.543  31.029   0.847
55641W        W 8537  11.014  29.802   0.731
55642W        W 8538  25.042  22.880   0.512
55643W        W 8539  27.185   3.488   3.128
55644W        W 8540  28.143  15.261   2.650
55645W        W 8541  33.508   8.899   0.885
55646W        W 8542  20.290  30.401   3.698
55647W        W 8543  34.683  20.319   1.900
55648W        W 8544   2.301  10.602  10.244
55649W        W 8545   8.692   4.455   2.657
55650W        W 8546   0.042  32.017   1.129
55651W        W 8547   0.094  15.875   1.124
55652W        W 8548  11.647  11.421   2.379
55653W        W 8549  10.112  16.811   2.348
55654W        W 8550  17.199  28.376   3.841
55655W        W 8551   4.350  31.591   3.101
55656W        W 8552  11.770   3.107   9.146
55657W        W 8553  31.056  35.302   9.130
55658W        W 8554   2.087  32.746   0.863
55659W        W 8555   9.504  30.413   1.221
55660W        W 8556   4.604   1.079   8.179
55661W        W 8557   1.531  24.654   0.395
55662W        W 8558   6.795  29.959   1.555
55663W        W 8559  32.407   2.193   0.452
55664W        W 8560  30.240  30.987   9.336
55665W        W 8561  22.961  20.923   3.646
55666W        W 8562  24.986   6.714   1.208
55667W        W 8563   9.697  21.822   7.758
55668W        W 8564  30.303  34.510   3.262
55669W        W 8565  23.192   6.193   1.933
55670W        W 8566  34.789  27.144   1.280
55671W        W 8567  32.449  29.580   1.642
55672W        W 8568   6.407  17.778   8.184
55673W        W 8569  17.975  19.972   2.920
55674W        W 8570  10.068  18.107   0.630
55675W        W 8571   7.320   1.859   1.191
55676W        W 8572   5.877  35.340   9.256
55677W        W 8573  27.642  33.639   1.503
55678W        W 8574  12.877  35.322   7.461
55679W        W 8575  18.619  10.396   3.139
55680W        W 8576  15.472   5.244   1.779
55681W        W 8577  18.515  12.445   9.019
55682W        W 8578  31.958  24.906   7.598
55683W        W 8579  26.961   3.566   8.290
55684W        W 8580  34.606  12.817   8.663
55685W        W 8581  20.862  13.362   0.576
55686W        W 8582  10.810  30.385   9.647
55687W        W 8583  19.670  19.712   9.261
55688W        W 8584  24.286  33.710   8.130
55689W        W 8585  15.117   9.498   2.840
55690W        W 8586  33.789  24.922   1.887
55691W        W 8587   1.282  16.548   9.602
55692W        W 8588  15.492  32.034  10.025
55693W        W 8589  18.356   9.996   0.299
55694W        W 8590  23.081  18.253   9.493
55695W        W 8591  31.311   8.985   2.768
55696W        W 8592  34.897  23.442   0.593
55697W        W 8593  26.673  13.273   9.536
55698W        W 8594  17.935   0.697   3.471
55699W        W 8595   2.632  35.422   9.038
55700W        W 8596   2.426  31.422  10.000
55701W        W 8597  14.925  25.729   9.124
55702W        W 8598  14.747  18.148   1.114
55703W        W 8599  33.381  18.759   1.970
55704W        W 8600  16.035  14.049   2.444
55705W        W 8601  32.387  10.047   7.723
55706W        W 8602  11.121   2.334   1.433
55707W        W 8603  26.150  14.948   9.444
55708W        W 8604  11.366  29.601   1.239
55709W        W 8605  24.042  13.252   8.081
55710W        W 8606  32.083   8.909   2.429
55711W        W 8607  13.928   6.146   0.507
55712W        W 8608   8.927  22.134   8.326
55713W        W 8609   5.958  18.397   9.308
55714W        W 8610  30.145  17.979   3.162
55715W        W 8611  25.326  30.789   2.452
55716W        W 8612  30.132   4.431   8.207
55717W        W 8613   1.257  31.555   1.908
55718W        W 8614   3.785  26.321   0.090
55719W        W 8615  21.204  23.979   3.733
55720W        W 8616  19.979  29.680   1.593
55721W        W 8617  11.370   8.458   3.520
55722W        W 8618   5.514   0.371   7.771
55723W        W 8619   4.643  32.580   2.259
55724W        W 8620  12.255  19.757   2.459
55725W        W 8621  13.692  34.182   0.823
55726W        W 8622  11.170  29.198   0.898
55727W        W 8623   9.183   8.731   9.342
55728W        W 8624   3.165  35.917   9.375
55729W        W 8625  16.821   2.836   8.065
55730W        W 8626  18.088  26.464   9.332
55731W        W 8627  14.962  24.845   8.801
55732W        W 8628   5.555   8.381   9.969
55733W        W 8629  25.496  16.606   0.127
55734W        W 8630  27.943  28.126   9.937
55735W        W 8631   1.365  18.071   2.348
55736W        W 8632   6.137  25.748   9.830
55737W        W 8633   0.719  22.631   1.390
55738W        W 8634  13.253  32.877   2.047
55739W        W 8635  35.515  29.643   8.948
55740W        W 8636  14.047  30.360   2.842
55741W        W 8637  33.383  26.604   9.898
55742W        W 8638   9.222  22.191   2.727
55743W        W 8639  22.820  17.255   8.294
55744W        W 8640  29.788  14.501   2.724
55745W        W 8641  23.347   1.977   2.968
55746W        W 8642  28.729  16.161   9.629
55747W        W 8643  33.478  34.764   9.038
55748W        W 8644   9.220  24.564   8.366
55749W        W 8645  30.229  15.853   1.821
55750W        W 8646  26.384  15.146   9.837
55751W        W 8647  31.007  21.767   1.004
55752W        W 8648  27.082  14.449   0.054
55753W        W 8649  27.118  23.787   7.701
55754W        W 8650  27.846   2.334   8.643
55755W        W 8651  24.830   1.037   2.226
55756W        W 8652   5.550  18.891   1.269
55757W        W 8653  29.655  29.655   3.042
55758W        W 8654   8.255  26.158   8.941
55759W        W 8655   6.839  16.151   0.217
55760W        W 8656   7.371   3.013   0.305
55761W        W 8657   5.011  16.552  10.232
55762W        W 8658  29.984  28.946   9.233
55763W        W 8659  15.456  27.642  10.139
55764W        W 8660  15.733  15.253   0.907
55765W        W 8661   6.958   2.930   8.916
55766W        W 8662   4.017  12.256   2.564
55767W        W 8663  18.365   7.383   1.329
55768W        W 8664  12.988  11.306   2.994
55769W        W 8665  21.456   0.513   8.379
55770W        W 8666   1.063  22.620   9.713
55771W        W 8667  13.991  35.874   9.946
55772W        W 8668  28.833  33.553   1.600
55773W        W 8669  35.853  13.599   2.613
55774W        W 8670  10.065  32.001   0.493
55775W        W 8671  20.872  33.522   1.754
55776W        W 8672  22.464  20.996   7.986
55777W        W 8673   2.926  32.324   0.569
55778W        W 8674  33.943  34.082   0.090
55779W        W 8675  25.633  34.156   1.411
55780W        W 8676  19.300   9.034   1.629
55781W        W 8677  35.008  18.118   2.828
55782W        W 8678  10.013   0.981   1.284
55783W        W 8679  15.041   3.004   7.776
55784W        W 8680  14.212   7.791   0.752
55785W        W 8681  28.012  10.413   3.126
55786W        W 8682  15.424  18.790   7.888
55787W        W 8683  10.500  14.072   0.113
55788W        W 8684  26.437  18.192   9.306
55789W        W 8685  23.426   9.111   0.093
55790W        W 8686  10.677   8.713   7.284
55791W        W 8687   0.525   2.777   1.921
55792W        W 8688  31.242  16.318   1.451
55793W        W 8689   2.468   9.753   0.805
55794W        W 8690  28.230   5.259   3.085
55795W        W 8691  35.054  24.283   9.868
55796W        W 8692  14.706  19.067   8.529
55797W        W 8693   7.399   6.361   9.031
55798W        W 8694  22.752  30.117   3.151
55799W        W 8695   0.335   8.590   8.048
55800W        W 8696   5.119   3.687  10.045
55801W        W 8697  13.660  21.379   8.182
55802W        W 8698  17.949  34.960  10.063
55803W        W 8699   6.188   2.950   9.119
55804W        W 8700  16.376   4.726   1.191
55805W        W 8701  21.652  26.940   7.608
55806W        W 8702  11.880  32.962   7.953
55807W        W 8703  22.819  10.687   1.504
55808W        W 8704  12.932  18.010  10.323
55809W        W 8705  13.409  11.043   0.219
55810W        W 8706  31.631  12.895   8.386
55811W        W 8707  32.034  17.973   0.166
55812W        W 8708  31.239   4.605   1.924
55813W        W 8709  12.880  17.155   8.954
55814W        W 8710  17.377  10.309   0.926
55815W        W 8711   3.622   4.918   0.093
55816W        W 8712  31.854   6.435   2.352
55817W        W 8713  34.848  13.619   9.506
55818W        W 8714  30.557  31.814   1.205
55819W        W 8715   4.611   1.711   8.126
55820W        W 8716   4.155  29.812   7.801
55821W        W 8717   2.135  32.532   9.374
55822W        W 8718  14.378  34.412   7.979
55823W        W 8719   3.122   2.196   7.742
55824W        W 8720   6.758  28.971   2.192
55825W        W 8721  26.136   9.616   9.806
55826W        W 8722   4.091  33.478   8.640
55827W        W 8723   4.756   5.442   7.391
55828W        W 8724  30.066  16.198   9.545
55829W        W 8725  29.383   9.667   1.128
55830W        W 8726   5.205   5.275   1.724
55831W        W 8727  18.250   0.168   9.869
55832W        W 8728  27.860   2.245   3.112
55833W        W 8729  10.393  17.716   0.322
55834W        W 8730  31.243   5.857   3.058
55835W        W 8731   3.849  31.837   9.820
55836W        W 8732  16.495  21.231  10.171
55837W        W 8733  12.083  32.919   9.048
55838W        W 8734   1.662  15.897  10.320
55839W        W 8735   7.407  21.797   1.749
55840W        W 8736  12.533  27.742   9.931
55841W        W 8737   9.861   9.300   7.022
55842W        W 8738  33.315  20.862   0.280
55843W        W 8739  26.372  22.451   2.101
55844W        W 8740  31.641  31.779   9.567
55845W        W 8741  15.809  10.536   0.686
55846W        W 8742  14.367  32.989   7.255
55847W        W 8743  23.205  27.706  10.265
55848W        W 8744   2.853  25.082   7.925
55849W        W 8745   9.656   3.846   2.381
55850W        W 8746   8.140   2.574   9.147
55851W        W 8747  18.672  27.950   2.574
55852W        W 8748   0.142   0.992   8.440
55853W        W 8749  11.769  10.740   7.466
55854W        W 8750  10.815  18.740   8.918
55855W        W 8751   5.941  35.910   9.383
55856W        W 8752  18.481   0.737   0.809
55857W        W 8753  14.317  35.887   0.068
55858W        W 8754   7.993  34.802   9.300
55859W        W 8755  21.961  12.978   3.804
55860W        W 8756  28.108   7.336   7.130
55861W        W 8757  33.376  16.726   2.897
55862W        W 8758  11.676  21.076   7.412
55863W        W 8759  29.592  35.477   9.309
55864W        W 8760  25.394  13.794   7.907
55865W        W 8761  25.827  21.238   2.765
55866W        W 8762  29.241  34.997   7.967
55867W        W 8763  23.091  32.795   4.288
55868W        W 8764  26.905  25.569   2.827
55869W        W 8765  14.598  28.781   1.411
55870W        W 8766  10.670  33.510  10.252
55871W        W 8767   7.533  27.276   8.231
55872W        W 8768  27.948  19.026   0.497
55873W        W 8769  24.813  15.698   2.294
55874W        W 8770   3.875  17.460   0.044
55875W        W 8771  11.183   1.224   0.100
55876W        W 8772  28.298  13.868   9.484
55877W        W 8773  21.002  23.489   0.428
55878W        W 8774  29.049   3.214   0.714
55879W        W 8775  11.614  28.929   1.468
55880W        W 8776  26.570  26.938   8.265
55881W        W 8777  17.965   3.087   8.719
55882W        W 8778  10.024  27.705   9.120
55883W        W 8779   8.763  24.004   0.091
55884W        W 8780  33.885  32.826   1.848
55885W        W 8781   2.732  35.828   0.225
55886W        W 8782   0.010   8.156   2.633
55887W        W 8783  31.004  23.540   7.791
55888W        W 8784  30.716   0.762   2.242
55889W        W 8785  20.130  24.139   9.808
55890W        W 8786  34.015   1.440   2.217
55891W        W 8787   8.419   3.269   9.989
55892W        W 8788  25.938  17.508   0.821
55893W        W 8789   0.250   0.600   9.361
55894W        W 8790   4.254  28.284   3.612
55895W        W 8791  19.008  28.866   2.472
55896W        W 8792  26.031   1.710   0.367
55897W        W 8793   7.133   4.541   2.358
55898W        W 8794  25.986  29.493   0.105
55899W        W 8795  11.106   3.819   1.839
55900W        W 8796  22.678  22.776   8.217
55901W        W 8797   4.660  29.837   7.843
55902W        W 8798  10.022  28.534  10.200
55903W        W 8799  16.284  22.943   9.626
55904W        W 8800  33.324  12.740   0.331
55905W        W 8801  21.094  16.178   8.842
55906W        W 8802  14.378  30.060   8.976
55907W        W 8803  26.743   4.664   8.364
55908W        W 8804  15.726  22.635   8.329
55909W        W 8805  14.199  25.879   8.250
55910W        W 8806  30.814  17.591  10.167
55911W        W 8807  21.801  23.513   2.186
55912W        W 8808   5.190  18.365   0.429
55913W        W 8809  22.917  24.085  10.228
55914W        W 8810   0.187  29.362   9.130
55915W        W 8811   2.425   8.486   7.669
55916W        W 8812  27.443  22.816   1.609
55917W        W 8813   2.688  25.221   2.203
55918W        W 8814  18.709   9.657   0.266
55919W        W 8815   8.544   5.568   2.704
55920W        W 8816   8.977  16.647   1.506
55921W        W 8817  23.129  33.755   9.166
55922W        W 8818   3.567   6.306   7.787
55923W        W 8819  13.328  12.375  10.316
55924W        W 8820   5.181  22.119   8.320
55925W        W 8821  16.711  13.541   0.867
55926W        W 8822   0.094  28.913   7.679
55927W        W 8823  25.257  21.618   1.407
55928W        W 8824  19.736   0.175   9.219
55929W        W 8825  30.861  13.549   0.957
55930W        W 8826  14.404  33.484   3.333
55931W        W 8827  28.648  16.848   1.146
55932W        W 8828   2.297   5.122   9.687
55933W        W 8829  18.599  13.560   7.982
55934W        W 8830  17.031  25.086   7.627
55935W        W 8831  10.608  19.835   7.622
55936W        W 8832  33.282   5.739   1.564
55937W        W 8833   2.319  30.430   1.962
55938W        W 8834  26.706  25.151   8.452
55939W        W 8835  17.969  35.471   9.035
55940W        W 8836   0.232   6.339   1.577
55941W        W 8837   7.545  34.345   8.101
55942W        W 8838  16.295  16.548   2.119
55943W        W 8839  35.224   3.211   2.184
55944W        W 8840  32.014  12.185   0.564
55945W        W 8841  22.041   8.299  10.196
55946W        W 8842   4.556  32.559   8.595
55947W        W 8843  19.149  15.191   2.472
55948W        W 8844  18.796  32.097   2.080
55949W        W 8845  34.637  17.501   3.299
55950W        W 8846  34.911  23.340   1.623
55951W        W 8847   4.084   8.562   1.427
55952W        W 8848   1.431   8.093   0.483
55953W        W 8849  20.029  16.646   8.702
55954W        W 8850  16.737   1.546   8.866
55955W        W 8851  11.700  16.502   9.488
55956W        W 8852  13.078  32.028   2.872
55957W        W 8853   8.530   9.657   8.484
55958W        W 8854  26.937  23.591   2.251
55959W        W 8855  28.852  10.838   3.019
55960W        W 8856  16.132   6.114  10.231
55961W        W 8857  28.314  26.109   3.017
55962W        W 8858   3.227   4.528   2.710
55963W        W 8859  11.534  32.225   8.222
55964W        W 8860  17.756  25.203   9.393
55965W        W 8861   1.141   5.435   1.482
55966W        W 8862  24.286   9.141   3.553
55967W        W 8863   4.672  27.081   9.712
55968W        W 8864   0.033  27.421   9.860
55969W        W 8865  16.139  14.820   8.647
55970W        W 8866   9.595  27.454   1.453
55971W        W 8867  15.145   9.059   2.042
55972W        W 8868  33.841  12.121   9.125
55973W        W 8869  27.847   3.863   9.676
55974W        W 8870  34.911  16.692   0.784
55975W        W 8871  13.407  25.970   7.513
55976W        W 8872  30.583   6.598   2.574
55977W        W 8873  14.236  18.195   9.018
55978W        W 8874  35.577  32.891   9.659
55979W        W 8875   0.259  32.694   0.605
55980W        W 8876   7.380  25.441   7.906
55981W        W 8877  15.885  15.625   0.480
55982W        W 8878  13.663   6.203   1.417
55983W        W 8879  31.430  35.285   3.429
55984W        W 8880  16.614   1.228  10.153
55985W        W 8881  32.063  23.691   1.639
55986W        W 8882  12.675   1.700   7.112
55987W        W 8883  10.427  26.431   0.369
55988W        W 8884   0.513  25.017   8.743
55989W        W 8885   9.681  16.774   1.573
55990W        W 8886  14.597   1.331   7.731
55991W        W 8887   8.119  16.540   1.397
55992W        W 8888  19.420   1.762   1.516
55993W        W 8889  13.476  31.955   2.378
55994W        W 8890  18.337   1.178   2.390
55995W        W 8891   5.659  29.691  10.148
55996W        W 8892  32.078  22.738   8.402
55997W        W 8893  29.089  16.748   2.880
55998W        W 8894  16.856   7.837   0.562
55999W        W 8895  12.638  20.565   6.955
56000W        W 8896  21.118  22.188   0.202
56001W        W 8897  34.707  29.125   9.038
56002W        W 8898   1.281   1.889   2.522
56003W        W 8899  23.360  31.078   9.716
56004W        W 8900  34.318  10.440   1.506
56005W        W 8901   4.384  14.904   0.751
56006W        W 8902  34.084  12.970   9.683
56007W        W 8903  12.075  27.088   3.504
56008W        W 8904  29.052  10.396   8.279
56009W        W 8905  17.016  32.958   7.776
56010W        W 8906   9.891  27.189   8.782
56011W        W 8907  11.970  18.278   9.632
56012W        W 8908   3.670  30.136   1.349
56013W        W 8909   0.851   7.137   9.324
56014W        W 8910  10.368  14.685   3.291
56015W        W 8911  30.697  21.301   0.484
56016W        W 8912  22.207  14.522   9.149
56017W        W 8913   1.276  34.461   2.212
56018W        W 8914  15.978  12.277   2.128
56019W        W 8915  35.025  35.754   7.764
56020W        W 8916  35.503  35.044   3.475
56021W        W 8917  24.466   5.638   0.433
56022W        W 8918  22.689  31.853   8.669
56023W        W 8919  30.315  32.272   1.156
56024W        W 8920   2.363  11.969   9.706
56025W        W 8921  18.504   2.942   9.397
56026W        W 8922  34.357  23.259   0.515
56027W        W 8923  13.749  25.994   8.488
56028W        W 8924   4.884   3.152   1.673
56029W        W 8925  23.104  19.107   0.102
56030W        W 8926   2.305   6.994   8.427
56031W        W 8927   1.196  24.817   3.159
56032W        W 8928   0.291  22.967   1.261
56033W        W 8929  16.118  29.149   3.107
56034W        W 8930   5.588  25.826   2.004
56035W        W 8931  26.671  21.593   1.674
56036W        W 8932  33.009  17.079   2.684
56037W        W 8933  19.318  31.633   8.771
56038W        W 8934  11.862   2.211   0.737
56039W        W 8935  19.289  27.021   0.013
56040W        W 8936  34.902  17.308   2.825
56041W        W 8937   4.590  34.169   3.074
56042W        W 8938  27.406  31.751   2.357
56043W        W 8939   0.840   5.621   7.011
56044W        W 8940  22.648   2.661   9.782
56045W        W 8941  20.968  28.197   3.583
56046W        W 8942  25.468  10.931   2.679
56047W        W 8943   3.523   6.022   9.726
56048W        W 8944   4.828  28.302  10.300
56049W        W 8945  30.509  30.220   7.687
56050W        W 8946   4.272  28.584   7.449
56051W        W 8947  17.598  31.675   7.124
56052W        W 8948  20.970  33.531  10.174
56053W        W 8949  29.252  16.675   9.539
56054W        W 8950   8.173   0.485   3.106
56055W        W 8951  30.099  14.050  10.240
56056W        W 8952  26.305  31.070   3.434
56057W        W 8953  30.466   7.861   8.477
56058W        W 8954  34.776  32.485   9.768
56059W        W 8955   9.257  17.838   8.705
56060W        W 8956  16.178   2.038   9.224
56061W        W 8957   0.816  26.387   3.379
56062W        W 8958  26.577  10.890   0.709
56063W        W 8959  17.638  21.867   0.816
56064W        W 8960  35.023   6.761   3.528
56065W        W 8961   4.950  30.666   0.370
56066W        W 8962  11.983  14.508   8.254
56067W        W 8963   5.182  22.905   7.718
56068W        W 8964  11.675  21.576   8.639
56069W        W 8965   4.911  20.685   9.355
56070W        W 8966  12.615  30.633   1.742
56071W        W 8967  26.141  14.685   9.865
56072W        W 8968  21.826   8.728   0.048
56073W        W 8969  17.749  12.545   1.183
56074W        W 8970   9.162  29.895   9.162
56075W        W 8971  35.465  23.896   2.480
56076W        W 8972   2.706  24.416   8.310
56077W        W 8973   5.064   1.824   1.286
56078W        W 8974  17.414  25.587   8.629
56079W        W 8975  28.896  19.171   9.426
56080W        W 8976  31.866  33.299   0.696
56081W        W 8977  16.932   3.487   2.966
56082W        W 8978  24.210  25.181  10.223
56083W        W 8979  19.787  33.623   7.893
56084W        W 8980   0.994  33.455   0.545
56085W        W 8981  30.337   1.097   1.412
56086W        W 8982  19.702   0.445   3.653
56087W        W 8983   2.624   5.691   9.263
56088W        W 8984   0.013   5.042   0.708
56089W        W 8985   1.748  32.340   0.398
56090W        W 8986  26.606  22.196   1.722
56091W        W 8987  24.740  30.922   1.185
56092W        W 8988   9.782  13.754   9.398
56093W        W 8989   4.229  23.618   2.896
56094W        W 8990  33.196   8.623   8.774
56095W        W 8991  15.972  17.799   0.851
56096W        W 8992  11.837  28.768  10.038
56097W        W 8993   7.155   3.805   9.296
56098W        W 8994  21.992   3.779   0.093
56099W        W 8995  15.407  29.469   0.981
56100W        W 8996   5.308  28.280  10.064
56101W        W 8997   6.940   4.567   7.905
56102W        W 8998  12.972  11.708   1.142
56103W        W 8999  16.041  24.261   3.050
56104W        W 9000  10.081  10.294   3.623
56105W        W 9001  10.806  23.092   2.463
56106W        W 9002   5.339   7.880   3.424
56107W        W 9003  15.860  18.005   0.321
56108W        W 9004   3.367  33.036   9.055
56109W        W 9005  29.477  34.148   0.932
56110W        W 9006  29.566  16.020   0.414
56111W        W 9007  16.769   0.398   2.697
56112W        W 9008   2.354   2.921   1.607
56113W        W 9009  24.190  11.286   1.628
56114W        W 9010  32.824   5.225   2.489
56115W        W 9011   3.755  29.210   1.223
56116W        W 9012  15.275  32.423   7.735
56117W        W 9013  21.600  35.023   9.648
56118W        W 9014   0.781  23.202   1.249
56119W        W 9015  29.307  29.279  10.322
56120W        W 9016  15.747  23.213   1.295
56121W        W 9017  13.930  30.003   8.678
56122W        W 9018  28.067   0.050   8.056
56123W        W 9019  13.003  31.053   8.162
56124W        W 9020  28.161  35.824   1.184
56125W        W 9021  27.779  15.353   8.946
56126W        W 9022   0.129   7.649   9.879
56127W        W 9023  17.985  27.738   1.404
56128W        W 9024   5.200  19.542   7.557
56129W        W 9025  16.535   5.586   0.510
56130W        W 9026  28.954  30.115   9.837
56131W        W 9027  15.047  23.974   0.240
56132W        W 9028  10.103  27.322   7.825
56133W        W 9029  26.062   5.091   9.897
56134W        W 9030  29.436   9.087   3.021
56135W        W 9031  18.752  21.919   1.119
56136W        W 9032  18.854  19.637   9.988
56137W        W 9033  28.327  32.302  10.222
56138W        W 9034  10.628  20.788   0.636
56139W        W 9035  31.962  26.909   2.452
56140W        W 9036  31.688  29.689   8.350
56141W        W 9037   1.298  19.333   1.593
56142W        W 9038  34.190   2.426   2.640
56143W        W 9039   7.965   6.044   2.602
56144W        W 9040   6.689  33.332   9.534
56145W        W 9041  29.352   4.568   2.156
56146W        W 9042  20.550  13.327   9.442
56147W        W 9043  33.763   2.509   9.592
56148W        W 9044  29.045  35.677   3.230
56149W        W 9045  20.779  27.855   9.178
56150W        W 9046   2.317  29.132   1.292
56151W        W 9047  11.613  34.355   1.083
56152W        W 9048   3.797   8.167   0.123
56153W        W 9049  33.952  21.337   1.160
56154W        W 9050  16.148  35.769   8.674
56155W        W 9051  34.605  16.087   3.138
56156W        W 9052   0.851  20.233   1.377
56157W        W 9053   1.928  26.319   9.143
56158W        W 9054   3.919   8.049   1.448
56159W        W 9055  13.807  11.715   9.686
56160W        W 9056  16.025   3.625   0.537
56161W        W 9057  20.582  33.500   9.117
56162W        W 9058  15.606   2.411   2.849
56163W        W 9059  27.486  35.704   2.573
56164W        W 9060  17.492  35.345   0.864
56165W        W 9061  13.991  31.079   2.145
56166W        W 9062  22.966  26.805   2.815
56167W        W 9063  12.918   1.380   8.434
56168W        W 9064   5.708  14.196   9.880
56169W        W 9065  29.508   4.923   1.052
56170W        W 9066  14.659  13.333   1.245
56171W        W 9067  11.883   4.766   1.632
56172W        W 9068  23.201  29.066   2.089
56173W        W 9069  36.006   2.503   0.701
56174W        W 9070  29.816  18.991  10.158
56175W        W 9071   8.722  17.013   8.732
56176W        W 9072   0.015   0.949  10.297
56177W        W 9073  27.682  23.518   8.280
56178W        W 9074  31.275   8.793   0.086
56179W        W 9075  27.398  29.872   9.549
56180W        W 9076  27.208   2.309   8.547
56181W        W 9077  14.479   0.775   1.982
56182W        W 9078  28.791  24.523   8.597
56183W        W 9079  20.244  25.439   3.191
56184W        W 9080  26.847  34.442   1.857
56185W        W 9081  18.860   8.978   2.461
56186W        W 9082  25.024  10.670   9.990
56187W        W 9083  25.315   0.095   2.069
56188W        W 9084  29.023   6.049   3.029
56189W        W 9085  12.344  26.248   2.127
56190W        W 9086   5.367  13.120   0.485
56191W        W 9087  35.081   0.343   7.092
56192W        W 9088   2.025  22.866   0.369
56193W        W 9089  14.295  30.321   8.496
56194W        W 9090  27.217   0.634   0.255
56195W        W 9091  31.743  13.882   8.297
56196W        W 9092  15.114  28.863   8.352
56197W        W 9093   4.684  15.443   2.464
56198W        W 9094  25.663  15.978   8.841
56199W        W 9095  28.335  19.836   9.666
56200W        W 9096   2.952  35.282   8.673
56201W        W 9097  31.266   6.287   9.549
56202W        W 9098  31.776  18.480   8.231
56203W        W 9099  22.150  13.774   0.513
56204W        W 9100  32.939  10.928   9.643
56205W        W 9101  28.978  32.749   7.475
56206W        W 9102  18.374  12.719   9.523
56207W        W 9103   4.131   7.112   1.488
56208W        W 9104  15.308  14.670   8.561
56209W        W 9105  13.655   1.423   0.566
56210W        W 9106  33.703   2.871   3.780
56211W        W 9107   2.790   1.674   9.429
56212W        W 9108   3.656  30.431   1.801
56213W        W 9109  34.906  18.592   2.999
56214W        W 9110  17.370  33.354   0.771
56215W        W 9111  11.565  35.140   9.746
56216W        W 9112  26.114  28.892   2.622
56217W        W 9113  27.008  35.393   1.310
56218W        W 9114  21.021  29.059   9.247
56219W        W 9115  24.945  10.170   9.145
56220W        W 9116  11.607  26.715   1.965
56221W        W 9117  33.165  14.500   0.277
56222W        W 9118  25.195  28.956   0.000
56223W        W 9119  25.393   6.576   0.830
56224W        W 9120  16.875  22.304   8.706
56225W        W 9121  25.384  25.794   9.724
56226W        W 9122  31.658  11.375   3.424
56227W        W 9123  18.104   1.047   1.284
56228W        W 9124  22.768   7.724   8.363
56229W        W 9125  28.820  33.010  10.110
56230W        W 9126  19.520   8.592   1.470
56231W        W 9127  34.999   2.942   6.738
56232W        W 9128  20.851  25.386   1.560
56233W        W 9129  27.795  34.862   7.626
56234W        W 9130   9.760  19.777  10.332
56235W        W 9131  10.996  12.265  10.087
56236W        W 9132  22.491  16.481   8.418
56237W        W 9133  31.478  15.127   2.222
56238W        W 9134   4.545  30.894   0.521
56239W        W 9135   0.382  19.943   9.119
56240W        W 9136  19.791   6.193   2.401
56241W        W 9137   7.233  11.164   1.950
56242W        W 9138  18.159  30.804  10.164
56243W        W 9139  32.415   6.871   9.547
56244W        W 9140  15.621  35.586   0.117
56245W        W 9141  12.142  32.575   9.539
56246W        W 9142   2.877  28.362   0.971
56247W        W 9143  23.928   7.108   9.397
56248W        W 9144   1.135  30.226   2.347
56249W        W 9145   6.702  14.616   9.576
56250W        W 9146   1.433   3.639   3.080
56251W        W 9147   6.899  31.131   1.576
56252W        W 9148  29.109   7.981   2.257
56253W        W 9149  22.416  23.444   2.669
56254W        W 9150   6.641  15.067   7.413
56255W        W 9151  32.035  25.507   2.699
56256W        W 9152   7.966  31.766   3.542
56257W        W 9153  23.878  17.587   1.358
56258W        W 9154  14.218  30.452   1.392
56259W        W 9155  21.415  23.849   7.372
56260W        W 9156   7.565  35.691   2.878
56261W        W 9157   7.491  23.988   1.741
56262W        W 9158  33.302  16.111   9.985
56263W        W 9159   4.682  26.014   0.059
56264W        W 9160  33.151  26.914   7.744
56265W        W 9161  19.153  17.422   3.246
56266W        W 9162  28.772   7.627   0.602
56267W        W 9163   2.826  29.300   8.760
56268W        W 9164  31.490  30.449   9.327
56269W        W 9165  35.662  27.500   8.513
56270W        W 9166  33.460   0.701   8.461
56271W        W 9167  21.366  20.229   2.694
56272W        W 9168  34.652  25.163   9.308
56273W        W 9169  20.032   2.841   0.994
56274W        W 9170   1.078   4.713   0.505
56275W        W 9171  14.764  25.772   0.932
56276W        W 9172  27.586  15.588   0.450
56277W        W 9173  28.658  21.630   7.838
56278W        W 9174   0.421  31.227   9.190
56279W        W 9175  32.894  31.398   8.313
56280W        W 9176  35.683   1.212   1.065
56281W        W 9177   3.681  20.743   3.968
56282W        W 9178  25.483  20.665   8.169
56283W        W 9179   6.524  19.887   2.488
56284W        W 9180   2.837  23.553   8.178
56285W        W 9181  19.241  24.989   0.064
56286W        W 9182  34.711   2.316   7.805
56287W        W 9183  22.202  14.294   9.610
56288W        W 9184  22.624  30.036   8.566
56289W        W 9185  15.646  22.221   1.359
56290W        W 9186   1.957  31.721   2.417
56291W        W 9187  27.220   5.123   9.677
56292W        W 9188  33.542  35.978   7.920
56293W        W 9189  28.112  22.677   7.994
56294W        W 9190  33.729   8.955   9.024
56295W        W 9191  11.548  10.177   0.007
56296W        W 9192  21.478  18.753  10.132
56297W        W 9193  16.834  22.328   2.974
56298W        W 9194  30.997  20.956   2.339
56299W        W 9195  12.487   5.985   0.613
56300W        W 9196  21.600  23.543   0.314
56301W        W 9197  25.418  13.783   1.819
56302W        W 9198   5.262  30.628   3.256
56303W        W 9199  19.012   9.170   8.027
56304W        W 9200  25.394  11.894   7.548
56305W        W 9201  13.233  11.790  10.199
56306W        W 9202  28.450  14.213   1.830
56307W        W 9203  26.313   3.169   7.541
56308W        W 9204  35.278  18.416   1.032
56309W        W 9205  28.940   6.938   8.071
56310W        W 9206  35.871  21.935   2.930
56311W        W 9207   5.219   2.219   3.689
56312W        W 9208   4.140  13.162   3.378
56313W        W 9209  35.502  19.713   7.653
56314W        W 9210   6.515  31.579   8.869
56315W        W 9211  24.822  26.194   3.376
56316W        W 9212   7.092  26.806   1.125
56317W        W 9213  27.411  10.751   0.935
56318W        W 9214  25.386  19.019   9.672
56319W        W 9215  10.028  32.877   1.048
56320W        W 9216  34.627  35.458   2.397
56321W        W 9217   2.557   1.946   3.322
56322W        W 9218  16.602  23.749   1.928
56323W        W 9219  34.892   0.355   8.899
56324W        W 9220  19.633  16.267   8.793
56325W        W 9221  28.159  27.584   1.960
56326W        W 9222  15.477  17.444   3.593
56327W        W 9223   1.092   3.232   1.040
56328W        W 9224  35.993  23.202   8.369
56329W        W 9225  22.382  12.183   7.846
56330W        W 9226  26.746  35.347  10.245
56331W        W 9227  16.740  11.897   8.797
56332W        W 9228   6.534  34.803   2.235
56333W        W 9229   6.042   9.273   8.951
56334W        W 9230   3.091  19.097   1.549
56335W        W 9231  16.290   4.554   3.997
56336W        W 9232  30.200  19.114   0.734
56337W        W 9233   7.941  31.312   9.791
56338W        W 9234   0.356  16.275   2.776
56339W        W 9235  35.488   0.274   8.202
56340W        W 9236   4.760  24.401  10.275
56341W        W 9237  24.604  29.502   3.123
56342W        W 9238  20.262  24.203   8.412
56343W        W 9239   2.963  33.765   9.447
56344W        W 9240  33.226  15.712   1.059
56345W        W 9241  16.296  14.168   1.817
56346W        W 9242  21.563  23.721  10.023
56347W        W 9243   8.046  24.998   3.442
56348W        W 9244  18.058  34.253   9.937
56349W        W 9245  17.724   6.958   7.857
56350W        W 9246  35.889  26.481  10.291
56351W        W 9247  10.138  14.294   0.484
56352W        W 9248  15.749  17.192   3.274
56353W        W 9249   3.688  21.395   9.565
56354W        W 9250  21.086   4.904   1.105
56355W        W 9251  11.056  14.235   7.872
56356W        W 9252  32.236  24.787   3.149
56357W        W 9253  19.460   6.839   1.677
56358W        W 9254   4.555  30.389   0.413
56359W        W 9255  20.949  28.792   8.829
56360W        W 9256  31.217  33.424  10.083
56361W        W 9257  17.130  31.472   0.206
56362W        W 9258  18.838  10.309   9.401
56363W        W 9259  14.130  22.639   1.842
56364W        W 9260  12.932   4.426   8.991
56365W        W 9261  15.326  16.859  10.199
56366W        W 9262  32.789   7.335   9.681
56367W        W 9263   3.207  19.728   7.211
56368W        W 9264  24.039  33.895   2.544
56369W        W 9265  10.373  34.569   1.272
56370W        W 9266  28.422  24.142  10.084
56371W        W 9267  21.614   7.659   9.572
56372W        W 9268  15.123   2.223  10.335
56373W        W 9269  11.464  27.082   2.643
56374W        W 9270  14.960   6.917   9.936
56375W        W 9271  19.825   7.835   7.374
56376W        W 9272  10.903   7.921   0.480
56377W        W 9273  24.691   8.712   1.226
56378W        W 9274  15.204   4.307   1.486
56379W        W 9275   8.270  24.399   8.271
56380W        W 9276  20.435  33.477   8.635
56381W        W 9277   7.287   8.597   8.230
56382W        W 9278  18.110  16.340  10.000
56383W        W 9279   6.480   8.106   2.409
56384W        W 9280  27.723  34.833   8.594
56385W        W 9281  28.902  13.013   8.608
56386W        W 9282  25.095  34.871   0.087
56387W        W 9283  21.803  25.250   8.534
56388W        W 9284  25.271  11.858   2.399
56389W        W 9285  20.917   6.227   9.454
56390W        W 9286  22.634  17.292   1.831
56391W        W 9287  11.759  25.511   8.261
56392W        W 9288  15.910  13.249   2.498
56393W        W 9289   8.103  34.939   7.630
56394W        W 9290   6.906  31.295   8.886
56395W        W 9291  27.093  31.454   2.137
56396W        W 9292   4.287   6.961   8.987
56397W        W 9293  32.590  23.400   0.959
56398W        W 9294  30.989  13.415   1.660
56399W        W 9295  15.176  22.119   1.439
56400W        W 9296  26.849  31.068  10.174
56401W        W 9297   2.702  12.396   9.307
56402W        W 9298  10.850  10.111   2.688
56403W        W 9299   5.262   4.377   1.938
56404W        W 9300  24.451   0.011   0.186
56405W        W 9301  22.092   8.421   3.052
56406W        W 9302   6.734  32.229   0.113
56407W        W 9303  22.569  29.399   0.642
56408W        W 9304  18.759  16.324   0.349
56409W        W 9305  35.979  34.497   9.478
56410W        W 9306  23.151   0.806   1.914
56411W        W 9307   0.621  18.407   8.295
56412W        W 9308   1.874  31.065   9.492
56413W        W 9309   9.443   9.140   3.062
56414W        W 9310  12.918  25.107   1.084
56415W        W 9311   8.252   1.908   0.891
56416W        W 9312   1.305  27.951   8.038
56417W        W 9313  17.166  27.815   1.948
56418W        W 9314  16.470   4.792   9.882
56419W        W 9315  30.327  32.055   0.155
56420W        W 9316   4.086   1.866   0.813
56421W        W 9317  23.122  35.980   7.851
56422W        W 9318   3.959  17.840   2.931
56423W        W 9319  29.290  13.894   2.187
56424W        W 9320  18.775   4.133   8.773
56425W        W 9321  14.840  19.551   3.162
56426W        W 9322  13.295  13.608   0.986
56427W        W 9323  15.188  29.468   9.101
56428W        W 9324   5.553  26.515   0.336
56429W        W 9325  21.563  20.024   7.630
56430W        W 9326   0.401  18.798   0.673
56431W        W 9327  27.461  33.188   2.222
56432W        W 9328  15.076  33.805   9.998
56433W        W 9329  33.743   2.531   2.602
56434W        W 9330  15.147  25.035   2.041
56435W        W 9331  18.356  20.289   8.291
56436W        W 9332  27.601  16.123   8.931
56437W        W 9333   7.801  18.427   9.847
56438W        W 9334  33.470   4.010   9.831
56439W        W 9335  17.587  11.118   1.001
56440W        W 9336  11.081   7.752   2.911
56441W        W 9337  14.765  23.874   0.784
56442W        W 9338  25.138  12.065   3.212
56443W        W 9339  17.087  13.731   8.327
56444W        W 9340  19.541  22.360   8.419
56445W        W 9341  21.989  14.530   2.208
56446W        W 9342  20.691   8.455   1.766
56447W        W 9343   0.192  20.056   1.395
56448W        W 9344  17.576   0.722   9.433
56449W        W 9345  25.359  22.638  10.327
56450W        W 9346  27.603  26.418   0.682
56451W        W 9347  17.091  19.937   8.690
56452W        W 9348  11.031  19.293   1.498
56453W        W 9349   0.307  18.839   9.601
56454W        W 9350  19.275  15.746   2.299
56455W        W 9351  28.776  11.057   8.940
56456W        W 9352  14.179  26.525   2.203
56457W        W 9353  19.993  33.617   8.551
56458W        W 9354   9.126  22.358   8.722
56459W        W 9355  30.459  23.840   9.820
56460W        W 9356   3.840  31.576   8.032
56461W        W 9357  30.536  33.295   2.329
56462W        W 9358  14.530   1.861   7.727
56463W        W 9359   1.612  35.194   1.453
56464W        W 9360  29.645  32.852   2.569
56465W        W 9361  13.350   4.809   0.371
56466W        W 9362   8.651  13.446   8.412
56467W        W 9363  11.730  30.299   3.184
56468W        W 9364  32.709  35.027   9.620
56469W        W 9365  31.933  18.787  10.031
56470W        W 9366  10.552  18.439   8.677
56471W        W 9367   7.568  26.137   1.182
56472W        W 9368  18.225   5.601   0.924
56473W        W 9369   9.629  25.330   8.547
56474W        W 9370  14.356  27.695   9.142
56475W        W 9371  29.556  24.497   0.886
56476W        W 9372  15.882  10.415   9.314
56477W        W 9373   5.640  24.634   1.547
56478W        W 9374  17.668  35.110   9.091
56479W        W 9375   2.757  25.258   8.862
56480W        W 9376  15.042  21.684   3.106
56481W        W 9377   9.170  15.880   3.211
56482W        W 9378  16.662  14.934   0.577
56483W        W 9379   3.617   2.637   8.219
56484W        W 9380  23.441  15.192   3.158
56485W        W 9381  19.779  16.838   8.315
56486W        W 9382   9.599  32.350   1.894
56487W        W 9383  35.417   1.585   2.849
56488W        W 9384   6.803  25.487   7.703
56489W        W 9385  31.639  14.928   3.338
56490W        W 9386   9.365  12.769   2.902
56491W        W 9387   5.834   0.067  10.121
56492W        W 9388  33.075  34.704   1.137
56493W        W 9389   8.999   6.875   7.420
56494W        W 9390   4.250  34.922   3.452
56495W        W 9391  31.645  20.249   1.193
56496W        W 9392  23.233  28.213   0.585
56497W        W 9393   6.625   5.985   2.883
56498W        W 9394  26.849  30.082   2.274
56499W        W 9395  24.729   4.922   7.582
56500W        W 9396  21.390  26.655   0.137
56501W        W 9397  28.344   9.309   3.562
56502W        W 9398  31.932  31.087   2.208
56503W        W 9399   7.610   3.040   0.771
56504W        W 9400   4.486  24.017  10.080
56505W        W 9401  14.093  26.184   7.092
56506W        W 9402  15.996   5.412   2.022
56507W        W 9403   3.009   1.354   2.943
56508W        W 9404  34.860  12.034   9.071
56509W        W 9405  18.200  24.595   8.200
56510W        W 9406  18.443  18.830  10.131
56511W        W 9407  24.166  23.231   7.652
56512W        W 9408   9.637  20.284   9.397
56513W        W 9409  11.206   6.711   9.297
56514W        W 9410  21.766  21.319   2.289
56515W        W 9411  12.888  13.642   2.787
56516W        W 9412  25.938  28.210   1.331
56517W        W 9413  26.379  29.745   2.371
56518W        W 9414  12.806  11.883   3.092
56519W        W 9415  29.857  11.633   9.214
56520W        W 9416   9.547  19.396   2.383
56521W        W 9417  30.603  24.988   7.912
56522W        W 9418   9.146   9.670   9.557
56523W        W 9419  15.182  17.575   1.885
56524W        W 9420  32.528  31.527   9.912
56525W        W 9421  23.539  17.909   2.094
56526W        W 9422  12.705   6.549   9.188
56527W        W 9423   5.934   3.798  10.289
56528W        W 9424   8.667  13.238   7.284
56529W        W 9425   2.849   7.570   7.902
56530W        W 9426   7.848  25.896   1.982
56531W        W 9427   7.412  35.913   8.658
56532W        W 9428  24.777   3.276   8.533
56533W        W 9429  33.348   9.380   9.421
56534W        W 9430  31.287  24.318   1.691
56535W        W 9431  16.536   8.544   7.854
56536W        W 9432  35.669  33.533   8.451
56537W        W 9433  18.654  29.016   1.161
56538W        W 9434  12.149  27.022   7.195
56539W        W 9435   1.788  11.545   2.778
56540W        W 9436  33.184   6.198   0.567
56541W        W 9437  27.015  34.766   3.452
56542W        W 9438  18.700  22.401   1.101
56543W        W 9439  31.829  17.584   9.243
56544W        W 9440  29.559  21.772   8.057
56545W        W 9441   7.299  35.784   1.349
56546W        W 9442  28.656  13.253   0.584
56547W        W 9443  12.790  26.994  10.037
56548W        W 9444  12.063  21.282   0.943
56549W        W 9445  17.160  15.140   0.324
56550W        W 9446  15.189  12.424   0.105
56551W        W 9447   3.390  16.073   2.524
56552W        W 9448  16.486  27.739   0.418
56553W        W 9449  32.594  18.068   3.856
56554W        W 9450  26.486  16.270   1.729
56555W        W 9451  10.953  30.199   8.324
56556W        W 9452   3.259  11.187  10.061
56557W        W 9453  30.363   6.628   0.326
56558W        W 9454   7.577  30.776   6.947
56559W        W 9455  23.986  25.385   3.163
56560W        W 9456  21.017   6.196   0.624
56561W        W 9457  23.029   5.751   1.044
56562W        W 9458  34.819   5.643   9.935
56563W        W 9459  27.679  17.090   8.319
56564W        W 9460  22.198   3.087   7.963
56565W        W 9461  25.651  19.698   2.220
56566W        W 9462  20.880  11.439   3.112
56567W        W 9463  33.333  23.006   8.335
56568W        W 9464  28.349  11.490   2.897
56569W        W 9465   4.670   8.896   0.540
56570W        W 9466   1.538  10.539   2.603
56571W        W 9467  17.708  14.533   0.952
56572W        W 9468  15.842  12.000   1.744
56573W        W 9469   2.426  32.825   2.347
56574W        W 9470   3.125  30.517  10.218
56575W        W 9471   6.000  33.836   0.537
56576W        W 9472  31.410  31.692   1.423
56577W        W 9473  21.318   1.830   3.213
56578W        W 9474  34.313  20.586   0.984
56579W        W 9475  13.417   5.020   1.973
56580W        W 9476  29.258  12.853   0.938
56581W        W 9477  30.529   1.714   1.790
56582W        W 9478  18.624  25.392   1.143
56583W        W 9479  18.400  21.132   9.862
56584W        W 9480  11.710  27.208  10.222
56585W        W 9481  12.562  33.862   9.797
56586W        W 9482   2.775  35.936   1.180
56587W        W 9483  28.334   9.597   8.990
56588W        W 9484  21.801   8.605   7.983
56589W        W 9485  14.375  25.686   1.839
56590W        W 9486  22.654   9.644   9.569
56591W        W 9487  21.530  23.091   0.515
56592W        W 9488  23.843  20.738  10.040
56593W        W 9489  16.497  10.767   0.208
56594W        W 9490   8.617   9.412   0.128
56595W        W 9491  33.432   0.945  10.252
56596W        W 9492  30.269  17.760   8.092
56597W        W 9493  11.637  33.299   2.143
56598W        W 9494  12.482   4.884   1.878
56599W        W 9495  21.996  35.595   8.030
56600W        W 9496  12.090  23.280   8.586
56601W        W 9497  13.873  27.770   8.133
56602W        W 9498  30.540  30.759   9.778
56603W        W 9499  31.576  19.849   1.897
56604W        W 9500   8.458  26.578   8.088
56605W        W 9501  22.242  34.429   0.961
56606W        W 9502  31.150  16.017   8.662
56607W        W 9503  11.657  17.678   7.910
56608W        W 9504  28.241  10.182   1.941
56609W        W 9505   6.642  21.281   1.744
56610W        W 9506  24.700  33.625   1.792
56611W        W 9507  22.665  21.835   2.229
56612W        W 9508  32.168  13.213   2.021
56613W        W 9509  15.737  30.611   9.402
56614W        W 9510  23.779  20.483   2.106
56615W        W 9511   5.032  24.003   0.122
56616W        W 9512  31.064   6.191   7.310
56617W        W 9513  24.497  10.013   3.350
56618W        W 9514   1.555  27.120   8.767
56619W        W 9515   0.475   1.766   2.095
56620W        W 9516  32.822  29.067   9.337
56621W        W 9517   4.978   8.661   2.879
56622W        W 9518   0.010   0.575   0.415
56623W        W 9519   9.976  14.296   1.940
56624W        W 9520   6.022   0.905   8.484
56625W        W 9521  11.142   4.607   9.816
56626W        W 9522  30.187   2.701   1.443
56627W        W 9523  20.205  14.230   3.725
56628W        W 9524  30.844  14.840   1.952
56629W        W 9525  27.720  29.627   7.063
56630W        W 9526  11.578   8.271   0.850
56631W        W 9527  14.470   7.688   9.798
56632W        W 9528  20.735  11.917   8.418
56633W        W 9529  11.886  27.957   9.100
56634W        W 9530   6.726  29.183   8.684
56635W        W 9531  27.010  14.223   0.524
56636W        W 9532   9.110  26.252  10.142
56637W        W 9533  15.267   9.318   7.419
56638W        W 9534  31.665  28.793   2.352
56639W        W 9535  21.878  28.657   8.691
56640W        W 9536  25.749   1.882   2.446
56641W        W 9537  35.004  10.933   0.102
56642W        W 9538   8.260  19.633   7.923
56643W        W 9539  24.289   4.311  10.248
56644W        W 9540   3.501   3.795   9.181
56645W        W 9541  25.902  18.794   3.520
56646W        W 9542  18.320  24.525   1.411
56647W        W 9543  14.255  24.923   2.513
56648W        W 9544  15.075  26.975   8.909
56649W        W 9545  24.030  21.329   2.571
56650W        W 9546  12.800  30.402   3.057
56651W        W 9547  11.989  20.254   1.340
56652W        W 9548   0.011  26.685   3.677
56653W        W 9549  28.024  22.571   0.291
56654W        W 9550   5.281  11.739   2.210
56655W        W 9551  30.782  31.845   1.682
56656W        W 9552  18.547  12.984   8.110
56657W        W 9553  35.804  17.421   2.243
56658W        W 9554   1.414  16.210   2.830
56659W        W 9555   8.515  28.707   7.015
56660W        W 9556  34.978  11.089   2.178
56661W        W 9557   0.817   0.489   7.746
56662W        W 9558  32.042   6.209   9.039
56663W        W 9559  35.723  13.332   1.612
56664W        W 9560  32.186  23.738   2.279
56665W        W 9561  33.343  15.769   9.626
56666W        W 9562   5.309  15.499   0.693
56667W        W 9563   0.232  10.790   0.126
56668W        W 9564  12.327  31.086   0.552
56669W        W 9565  12.961  26.079   1.037
56670W        W 9566  13.987  34.836   8.379
56671W        W 9567   9.109   9.492  10.190
56672W        W 9568   9.102  24.464   7.165
56673W        W 9569   7.987  21.535   1.839
56674W        W 9570  31.264  26.579   2.703
56675W        W 9571  27.991   9.864   1.395
56676W        W 9572  17.771  28.661   1.217
56677W        W 9573  14.839  35.574   8.833
56678W        W 9574  17.308  19.638   2.062
56679W        W 9575  13.408  20.580   0.741
56680W        W 9576  28.981  23.364   9.207
56681W        W 9577  23.801  13.517   9.015
56682W        W 9578  35.108  19.707   2.388
56683W        W 9579  20.354  19.131   2.684
56684W        W 9580   9.003  32.259   9.039
56685W        W 9581  35.179  16.166   7.900
56686W        W 9582  13.412  31.889   8.077
56687W        W 9583  21.516  21.749   1.174
56688W        W 9584   9.252  24.619   0.888
56689W        W 9585   8.860   9.282   3.282
56690W        W 9586  29.198  18.621   7.857
56691W        W 9587  32.993   7.376   8.743
56692W        W 9588  28.124  18.395   1.643
56693W        W 9589  17.275  14.803   2.364
56694W        W 9590  12.555   6.573   2.259
56695W        W 9591  30.146  22.583   8.429
56696W        W 9592  26.122  33.911   3.200
56697W        W 9593  18.706  31.982   2.561
56698W        W 9594  31.582  12.480   0.531
56699W        W 9595   3.609  22.383   8.806
56700W        W 9596  32.468  10.344   0.633
56701W        W 9597  10.854  27.841   0.933
56702W        W 9598   4.768  33.119   8.934
56703W        W 9599  26.231  21.169   0.526
56704W        W 9600  20.723   7.156   9.900
56705W        W 9601  27.053  25.228   1.842
56706W        W 9602  30.470   5.471   9.669
56707W        W 9603  30.803  32.880   9.486
56708W        W 9604  31.430   3.174   1.748
56709W        W 9605   7.483  11.426   0.571
56710W        W 9606  13.883  30.816   1.441
56711W        W 9607  35.286  34.520   9.658
56712W        W 9608   6.376  26.159   0.807
56713W        W 9609   8.267  25.436   3.346
56714W        W 9610   2.982  13.744   3.118
56715W        W 9611  26.940  19.547   0.850
56716W        W 9612   4.294  33.108  10.295
56717W        W 9613  31.934   7.542   7.031
56718W        W 9614   1.504  34.052   2.867
56719W        W 9615   3.959  17.120   8.991
56720W        W 9616  34.994  15.324   1.611
56721W        W 9617  29.206  17.057   2.498
56722W        W 9618  16.590  34.661   1.855
56723W        W 9619  10.117  28.732   2.499
56724W        W 9620  24.292   0.667   8.708
56725W        W 9621  35.506  30.068   3.336
56726W        W 9622   6.158   2.322   9.427
56727W        W 9623  22.126  28.233   9.982
56728W        W 9624  29.136  18.788   0.725
56729W        W 9625   0.626  18.343   2.414
56730W        W 9626   6.573  15.160   1.924
56731W        W 9627   3.574  22.475   2.227
56732W        W 9628   9.139  13.552   8.240
56733W        W 9629  33.553   5.972   9.846
56734W        W 9630   7.772  21.749   1.297
56735W        W 9631  17.131  13.605   0.308
56736W        W 9632  31.753  21.826   2.654
56737W        W 9633   4.828  33.810   8.136
56738W        W 9634  16.358  23.861   3.170
56739W        W 9635   9.292  30.831   1.466
56740W        W 9636  35.129  17.055   2.364
56741W        W 9637   2.073  10.429   9.329
56742W        W 9638  17.699   3.580   3.351
56743W        W 9639  14.962  16.372  10.238
56744W        W 9640   4.937  29.662   8.404
56745W        W 9641  24.248  26.619   8.537
56746W        W 9642   9.422  32.661   7.160
56747W        W 9643  22.947  13.548   0.861
56748W        W 9644  35.763  30.691   9.793
56749W        W 9645  17.303  15.125   7.687
56750W        W 9646   7.484  25.792   8.225
56751W        W 9647   9.589  12.332   0.113
56752W        W 9648  15.183  28.213   2.120
56753W        W 9649  23.833  29.941   2.961
56754W        W 9650  22.995  14.685   1.207
56755W        W 9651  19.722  21.006   2.471
56756W        W 9652  27.315  11.985   1.233
56757W        W 9653  20.432   8.073   8.970
56758W        W 9654  24.779   6.648   2.101
56759W        W 9655  23.268   4.182   8.719
56760W        W 9656  12.162  35.773   7.544
56761W        W 9657   3.339   0.207   2.455
56762W        W 9658   1.087   5.326   0.078
56763W        W 9659  31.529  31.212   8.674
56764W        W 9660  27.475  11.248   9.901
56765W        W 9661   2.876  17.231   1.221
56766W        W 9662  23.022  29.432   0.405
56767W        W 9663  11.612  30.840  10.207
56768W        W 9664  13.428  27.559   8.934
56769W        W 9665  10.711  12.284   2.560
56770W        W 9666   8.604   8.250   2.433
56771W        W 9667   1.655  30.545   0.723
56772W        W 9668  26.738  30.490   7.947
56773W        W 9669   5.868  27.082   8.306
56774W        W 9670   6.705  34.280   9.292
56775W        W 9671  16.793  29.996   0.965
56776W        W 9672  35.892  33.041   7.663
56777W        W 9673  11.892  28.350   7.737
56778W        W 9674  30.522  18.099   0.659
56779W        W 9675  34.919  30.665   9.675
56780W        W 9676  32.203  31.314   3.098
56781W        W 9677  13.438  29.503   8.264
56782W        W 9678   4.185  13.693   9.893
56783W        W 9679  23.677  31.389   8.341
56784W        W 9680  15.093  12.402   9.886
56785W        W 9681  17.231  26.534   9.589
56786W        W 9682  35.792  17.728   0.816
56787W        W 9683  26.954  23.643   9.180
56788W        W 9684  29.619   0.334   0.424
56789W        W 9685   4.529  26.753   2.745
56790W        W 9686   1.720  19.247   0.909
56791W        W 9687  24.322  14.926   0.123
56792W        W 9688   5.404  13.164   1.356
56793W        W 9689  16.575   3.349   0.233
56794W        W 9690   9.105   0.247   8.782
56795W        W 9691   5.138  15.043   2.725
56796W        W 9692   9.311  17.826   2.897
56797W        W 9693   3.944   1.601   2.661
56798W        W 9694  26.930  27.627   7.843
56799W        W 9695   0.274  29.675   7.800
56800W        W 9696  29.243   2.629   9.025
56801W        W 9697  23.947  35.480   2.048
56802W        W 9698   8.022   6.379   1.852
56803W        W 9699  32.357  28.741  10.202
56804W        W 9700  26.106  12.438   8.167
56805W        W 9701  34.126  19.125   8.607
56806W        W 9702  26.009   2.912   7.825
56807W        W 9703  22.997  20.813   2.340
56808W        W 9704  19.330  33.565   2.681
56809W        W 9705  20.252   6.124   0.375
56810W        W 9706   2.738   6.043   1.362
56811W        W 9707  25.983  15.187   8.431
56812W        W 9708   7.009   3.550  10.004
56813W        W 9709  35.167  26.393  10.336
56814W        W 9710   1.540  36.003   9.644
56815W        W 9711   5.633  19.246   9.317
56816W        W 9712  28.436  12.683   3.190
56817W        W 9713  35.522  23.302   1.641
56818W        W 9714  20.812  11.275   1.837
56819W        W 9715   2.876   4.671   7.645
56820W        W 9716  14.161  13.877   7.522
56821W        W 9717   3.024   1.602   8.970
56822W        W 9718   6.471  14.759   9.972
56823W        W 9719  24.452  25.164   8.446
56824W        W 9720  34.734  14.247   9.205
56825W        W 9721  35.698  23.696   8.372
56826W        W 9722   0.349   8.239   8.901
56827W        W 9723  19.832  19.686   9.782
56828W        W 9724  26.235  24.098   9.332
56829W        W 9725  17.927  17.873   9.850
56830W        W 9726  27.638  19.276  10.172
56831W        W 9727   8.400  26.670   0.922
56832W        W 9728  33.088  21.697   9.934
56833W        W 9729  35.317  20.292   7.774
56834W        W 9730  29.376  31.706   1.409
56835W        W 9731   8.324  18.975   0.627
56836W        W 9732  17.124   6.929   0.367
56837W        W 9733  15.662  21.646   7.409
56838W        W 9734  18.511   8.459   1.405
56839W        W 9735  10.249   2.363   8.030
56840W        W 9736  22.974  25.793   0.967
56841W        W 9737  11.770  25.871  10.211
56842W        W 9738  35.597  15.487   3.811
56843W        W 9739  11.864  11.496   9.017
56844W        W 9740   6.743  10.074   9.722
56845W        W 9741  16.862  22.552   0.948
56846W        W 9742  26.717  19.546   9.856
56847W        W 9743  21.514  14.460   6.816
56848W        W 9744  24.050  26.724   9.659
56849W        W 9745   5.822  19.250  10.203
56850W        W 9746   7.134  18.881   1.001
56851W        W 9747  11.504   7.233   1.974
56852W        W 9748   5.555  11.824   7.759
56853W        W 9749   3.517  29.600   1.332
56854W        W 9750   4.963  22.454   1.086
56855W        W 9751  24.757   5.951   8.520
56856W        W 9752  34.383  10.379   2.662
56857W        W 9753  25.539  26.160   9.414
56858W        W 9754  30.109  19.513   1.497
56859W        W 9755  35.049  25.290   3.152
56860W        W 9756  14.502  23.925   9.399
56861W        W 9757   8.492  29.313   8.893
56862W        W 9758  25.566  30.459  10.259
56863W        W 9759  14.282  29.108   7.854
56864W        W 9760  29.061  12.552   9.942
56865W        W 9761   1.252   3.217   8.521
56866W        W 9762  35.481   7.012   8.842
56867W        W 9763  11.930  28.987   8.970
56868W        W 9764  26.176  32.355   0.161
56869W        W 9765  30.762   6.989   1.016
56870W        W 9766  29.595   8.029   0.250
56871W        W 9767   1.277  21.432   3.332
56872W        W 9768   4.027   8.008   7.771
56873W        W 9769  33.260   1.032   7.566
56874W        W 9770  25.341   3.330   9.927
56875W        W 9771  24.523  24.230   7.953
56876W        W 9772  14.812  11.013   3.578
56877W        W 9773  24.858  13.399   8.543
56878W        W 9774  14.084  11.736   3.667
56879W        W 9775  29.614  15.828   9.569
56880W        W 9776  16.432  10.263   8.589
56881W        W 9777  27.207  15.554   9.576
56882W        W 9778   1.302  28.024   9.536
56883W        W 9779  32.451  15.714   9.448
56884W        W 9780   2.616   6.786  10.040
56885W        W 9781  33.573  24.704   2.425
56886W        W 9782  31.270  30.951   3.300
56887W        W 9783   2.763  30.220   1.853
56888W        W 9784  27.112   6.179   2.490
56889W        W 9785   2.056  29.820   3.203
56890W        W 9786  30.215  23.830   8.067
56891W        W 9787   7.993   0.240   1.896
56892W        W 9788  11.907  15.906   1.779
56893W        W 9789  22.251   0.171   0.602
56894W        W 9790  13.491   6.813   2.784
56895W        W 9791  15.253  12.016   9.617
56896W        W 9792  16.045   2.878   9.339
56897W        W 9793   3.531   1.709   9.909
56898W        W 9794   3.614  32.077   8.942
56899W        W 9795  29.496   0.221   9.275
56900W        W 9796   0.287  35.764   8.933
56901W        W 9797  17.047  21.529   1.448
56902W        W 9798  20.509   3.026   7.054
56903W        W 9799  25.737  18.556   1.739
56904W        W 9800  18.476  33.424   2.956
56905W        W 9801   4.313  28.360   8.909
56906W        W 9802   5.250  18.742   1.651
56907W        W 9803  27.720   6.302   1.013
56908W        W 9804  14.505  20.949   1.555
56909W        W 9805  16.184   6.555   0.280
56910W        W 9806  25.588  28.861   2.465
56911W        W 9807  22.337  23.105   1.098
56912W        W 9808  30.074  34.005   7.854
56913W        W 9809  30.960   4.212   0.815
56914W        W 9810  11.645  28.559   2.308
56915W        W 9811  26.351  19.865   1.621
56916W        W 9812  13.356   5.611   0.829
56917W        W 9813  13.673   1.997   8.078
56918W        W 9814  28.015  26.412   1.550
56919W        W 9815  30.484   4.213   9.698
56920W        W 9816  18.619  13.351   8.456
56921W        W 9817   4.435  16.654   2.371
56922W        W 9818   8.082  34.812   0.382
56923W        W 9819   6.471   3.309   8.986
56924W        W 9820  12.848   8.481   0.730
56925W        W 9821  10.926  17.750   7.344
56926W        W 9822  35.683  27.108   7.762
56927W        W 9823  12.393  10.194   7.202
56928W        W 9824  33.975  34.556   2.389
56929W        W 9825  11.266   2.805   9.938
56930W        W 9826  21.380   2.291   9.864
56931W        W 9827   5.500   5.391   7.991
56932W        W 9828  35.572  20.873  10.218
56933W        W 9829  33.866  31.567   8.810
56934W        W 9830   5.655  16.411   8.861
56935W        W 9831  30.408  20.061   1.166
56936W        W 9832  10.488   4.313   8.187
56937W        W 9833  13.615  12.388   7.473
56938W        W 9834  14.089   0.083   1.737
56939W        W 9835  17.249  20.323   3.583
56940W        W 9836   0.309   6.388   8.470
56941W        W 9837  20.029  27.645   1.582
56942W        W 9838   7.455   8.230  10.202
56943W        W 9839  30.850  21.487   9.951
56944W        W 9840  35.165  30.704   2.803
56945W        W 9841  13.787  18.112   2.986
56946W        W 9842  24.641  17.372   8.840
56947W        W 9843  34.366  12.560   2.879
56948W        W 9844   3.984  19.841   7.897
56949W        W 9845  14.759  13.062   8.556
56950W        W 9846  10.862  22.499   8.763
56951W        W 9847  18.834   9.388   0.797
56952W        W 9848  17.218  18.363   9.095
56953W        W 9849  17.267  31.877   1.418
56954W        W 9850   7.175   2.213   9.709
56955W        W 9851  18.801   1.828   2.176
56956W        W 9852  32.099  25.746   2.172
56957W        W 9853   9.174  21.659   7.829
56958W        W 9854  32.928  15.994   1.807
56959W        W 9855  31.868  25.118   2.954
56960W        W 9856   8.057  31.571   8.220
56961W        W 9857  20.787  10.795   2.548
56962W        W 9858  29.025  25.697   2.340
56963W        W 9859   7.182  25.905   1.417
56964W        W 9860   9.509  15.775   0.093
56965W        W 9861  27.233  21.222   9.385
56966W        W 9862  20.743  13.651   8.160
56967W        W 9863  29.724  14.182   0.591
56968W        W 9864  16.155  24.419   1.390
56969W        W 9865  15.440  30.665   0.920
56970W        W 9866  18.297  16.546   0.535
56971W        W 9867  10.182  35.389   0.182
56972W        W 9868  15.486  26.463   9.529
56973W        W 9869  14.497  24.441   0.470
56974W        W 9870  28.676  11.809   8.365
56975W        W 9871  10.909  12.546   1.835
56976W        W 9872  17.060  25.547   7.788
56977W        W 9873  19.047  23.893   2.722
56978W        W 9874  22.689   0.703   2.776
56979W        W 9875  18.896  23.273   3.318
56980W        W 9876   4.207  19.568   8.332
56981W        W 9877  18.725   0.095   9.682
56982W        W 9878  20.701  30.787   2.333
56983W        W 9879  35.009  22.999   9.485
56984W        W 9880  31.648  25.760   2.439
56985W        W 9881   0.326  34.732   9.149
56986W        W 9882   2.548  23.288   7.740
56987W        W 9883  21.000  21.920   8.200
56988W        W 9884   6.264   8.345   1.948
56989W        W 9885  26.032  16.875   8.613
56990W        W 9886  31.686  23.960   2.336
56991W        W 9887   0.295   0.146   0.184
56992W        W 9888  22.240  28.062   2.061
56993W        W 9889  20.309  13.154   0.315
56994W        W 9890  28.784   5.398  10.258
56995W        W 9891  32.321  34.556   8.246
56996W        W 9892  35.444  30.582   2.221
56997W        W 9893   9.970   7.874   8.300
56998W        W 9894  27.525  27.605   0.737
56999W        W 9895  32.043   4.908   1.264
57000W        W 9896   0.406  35.517   2.079
57001W        W 9897  14.683  10.742   2.394
57002W        W 9898  29.246  22.510   1.536
57003W        W 9899   4.094  22.147   3.787
57004W        W 9900   5.039  20.609   2.480
57005W        W 9901  27.906  28.384   1.428
57006W        W 9902  35.686   6.012   8.905
57007W        W 9903  24.818  14.064   9.751
57008W        W 9904  21.422  14.848   3.301
57009W        W 9905  18.138   0.822   8.730
57010W        W 9906  24.656  16.469   8.282
57011W        W 9907   0.366  21.930   1.078
57012W        W 9908   3.961  17.034   0.393
57013W        W 9909  16.883  30.688   9.990
57014W        W 9910  30.302   2.333   1.118
57015W        W 9911   6.828   3.648   8.854
57016W        W 9912   6.342   9.538   2.268
57017W        W 9913  35.246  13.619   2.590
57018W        W 9914  29.098  35.581   9.092
57019W        W 9915  29.258   4.984   8.199
57020W        W 9916  12.691   3.464   2.496
57021W        W 9917  28.092   1.848   7.906
57022W        W 9918  19.392  30.573   7.304
57023W        W 9919  20.202  27.676   8.565
57024W        W 9920  32.818  34.074   9.968
57025W        W 9921  33.006  24.653   8.463
57026W        W 9922  31.192  33.626   7.252
57027W        W 9923  23.446  13.354   2.793
57028W        W 9924   1.644  29.866   7.143
57029W        W 9925   4.777  16.779   1.908
57030W        W 9926  19.132  29.927   1.748
57031W        W 9927  29.557  28.523   3.507
57032W        W 9928  32.036   2.782   2.924
57033W        W 9929  10.566  25.619  10.163
57034W        W 9930  16.434  31.790   0.518
57035W        W 9931   1.043  15.927   0.969
57036W        W 9932  15.381   6.631   1.974
57037W        W 9933   8.649  28.431   9.508
57038W        W 9934  35.939  35.520   9.226
57039W        W 9935  18.240   9.383   0.345
57040W        W 9936  26.206   5.880   9.312
57041W        W 9937   5.050  21.010   8.389
57042W        W 9938   4.594  18.564   2.896
57043W        W 9939   7.096   5.484   0.243
57044W        W 9940   4.805   3.561   3.512
57045W        W 9941   2.468   4.032   1.411
57046W        W 9942   2.550  12.432   4.087
57047W        W 9943  24.964  10.792   8.201
57048W        W 9944  28.582   2.698   2.765
57049W        W 9945  13.531  30.671   8.772
57050W        W 9946  33.486  25.603   1.143
57051W        W 9947  12.722   3.629   9.879
57052W        W 9948   5.616   4.295   8.838
57053W        W 9949  29.513  23.731   2.586
57054W        W 9950   9.875  13.330   8.001
57055W        W 9951   6.936  18.404   2.265
57056W        W 9952  30.004   2.461   9.428
57057W        W 9953  21.538  21.061   7.837
57058W        W 9954  33.175  18.879   8.426
57059W        W 9955  25.965  14.629   1.550
57060W        W 9956  20.555   2.135   0.710
57061W        W 9957  24.369   5.933   2.410
57062W        W 9958  25.542  31.263   0.480
57063W        W 9959  16.128  21.528   7.537
57064W        W 9960   9.346  33.359   9.043
57065W        W 9961   6.806  21.989   0.252
57066W        W 9962  27.470   0.836   9.428
57067W        W 9963   2.783   0.567   2.424
57068W        W 9964  11.182   2.070   9.321
57069W        W 9965   9.106  21.748   9.512
57070W        W 9966  35.593  26.217   1.812
57071W        W 9967  32.559   7.751   9.514
57072W        W 9968  33.811  18.063   3.331
57073W        W 9969   1.967  18.898   8.308
57074W        W 9970   5.236  18.622   9.902
57075W        W 9971   1.889   6.446   7.799
57076W        W 9972  18.912  10.482   0.799
57077W        W 9973  35.361  33.276   9.423
57078W        W 9974  35.025  10.318   9.161
57079W        W 9975  22.769  10.150   8.429
57080W        W 9976   3.199  11.141   2.781
57081W        W 9977  12.050  15.074   1.460
57082W        W 9978   1.211  14.754   3.532
57083W        W 9979  13.865  12.231   9.756
57084W        W 9980  28.108  27.964   9.211
57085W        W 9981  23.144   5.490  10.150
57086W        W 9982  17.383   8.797   0.942
57087W        W 9983  28.600  34.105   7.937
57088W        W 9984   6.726  33.441   2.399
57089W        W 9985   4.166  11.842   9.193
57090W        W 9986   9.168  16.129   9.610
57091W        W 9987  23.271  25.511   7.705
57092W        W 9988   0.920   8.945   1.933
57093W        W 9989   8.298  11.960   0.352
57094W        W 9990   5.279  12.894   8.371
57095W        W 9991  13.462  23.381   8.035
57096W        W 9992   4.140   9.559   9.191
57097W        W 9993  31.467   1.528  10.102
57098W        W 9994   8.651  20.737   0.144
57099W        W 9995  20.195  27.223   9.157
57100W        W 9996  29.888   3.332   0.150
57101W        W 9997  31.652  16.976  10.005
57102W        W 9998  23.829  35.842   9.239
57103W        W 9999   7.874   5.432   0.753
57104W        W10000  12.155  12.532  10.240
57105W        W10001   6.625  18.541   7.775
57106W        W10002  21.913  18.250   3.352
57107W        W10003  14.568  10.246   3.082
57108W        W10004   3.054   9.961   2.270
57109W        W10005  22.443  30.261   8.182
57110W        W10006  26.708  35.933   2.441
57111W        W10007  17.034  30.885   1.286
57112W        W10008  20.435  16.803   2.803
57113W        W10009  34.024  17.160   9.321
57114W        W10010  22.760  24.909   8.764
57115W        W10011  21.780  17.507   2.591
57116W        W10012  18.085   6.538   1.009
57117W        W10013  22.026  25.347   9.903
57118W        W10014  23.849   0.340   1.447
57119W        W10015  16.385  15.800   0.360
57120W        W10016   8.457  14.626   0.641
57121W        W10017  20.867  26.388   8.181
57122W        W10018  33.078  18.673   2.806
57123W        W10019  32.261   4.364   0.991
57124W        W10020  11.497  26.529   9.554
57125W        W10021   9.225   2.954   8.297
57126W        W10022  26.142  24.910   1.852
57127W        W10023  23.107   2.203   0.563
57128W        W10024   7.118  14.589   2.501
57129W        W10025  18.830   6.420   9.490
57130W        W10026   8.212  27.792   1.108
57131W        W10027   0.454  20.887   2.472
57132W        W10028   5.824   0.495   8.155
57133W        W10029   7.397  32.181   1.649
57134W        W10030  17.663  13.586   0.816
57135W        W10031  23.116  19.921   9.056
57136W        W10032  33.725  27.623   1.780
57137W        W10033  20.483  24.469   9.209
57138W        W10034  22.191  16.662   8.792
57139W        W10035   9.900  28.829   8.306
57140W        W10036  20.497  18.167   1.580
57141W        W10037  14.846  31.574   9.028
57142W        W10038  28.850  11.486   9.287
57143W        W10039   4.547  10.306   2.884
57144W        W10040  21.376   8.798   8.284
57145W        W10041  32.313   1.629   9.679
57146W        W10042  32.181  30.312   0.652
57147W        W10043  15.825  24.298   9.557
57148W        W10044  16.120  19.874   2.823
57149W        W10045   4.428  17.801   8.728
57150W        W10046  26.343  27.923  10.154
57151W        W10047  23.682  31.365  10.010
57152W        W10048  17.058   1.191   2.047
57153W        W10049  26.541  27.565   0.986
57154W        W10050  33.536   6.725  10.203
57155W        W10051  29.566  22.690   0.776
57156W        W10052  24.850  14.402   8.887
57157W        W10053  35.702  24.252   3.015
57158W        W10054   6.390  24.190   1.570
57159W        W10055  21.013  25.666   9.702
57160W        W10056   2.160  25.442   8.093
57161W        W10057  26.262  18.258   2.292
57162W        W10058  26.821  12.992   1.052
57163W        W10059   9.457  20.254   0.112
57164W        W10060  19.714  21.061   8.882
57165W        W10061  10.167   4.176   9.214
57166W        W10062  33.598   7.566   8.559
57167W        W10063  21.605  17.489   0.005
57168W        W10064  29.152   6.173   2.222
57169W        W10065  34.535  11.711   9.348
57170W        W10066  35.590  18.447   7.516
57171W        W10067  23.718  17.353   0.886
57172W        W10068   3.274  21.551   1.699
57173W        W10069  14.958  13.084   0.805
57174W        W10070  22.780   6.936   2.951
57175W        W10071   7.483  18.190   0.531
57176W        W10072  19.294  17.685   8.435
57177W        W10073  21.234  17.809   2.677
57178W        W10074   8.173  13.496   9.516
57179W        W10075  27.673  32.164   8.896
57180W        W10076  15.353  12.531   9.028
57181W        W10077   7.272   6.955  10.287
57182W        W10078   3.730   9.557   3.954
57183W        W10079  24.731  23.017   0.830
57184W        W10080   0.703  11.067   7.865
57185W        W10081  15.255  21.303   8.433
57186W        W10082  24.589   9.579   0.365
57187W        W10083   0.678  26.630   2.505
57188W        W10084  32.382  24.022   1.358
57189W        W10085  23.120   2.902   9.733
57190W        W10086  10.353  26.009   6.438
57191W        W10087   1.855  20.839   1.028
57192W        W10088  13.772  16.091   3.174
57193W        W10089  10.915   7.413   7.726
57194W        W10090  24.945   1.732   1.976
57195W        W10091   9.721  29.297   1.171
57196W        W10092  19.014   3.727   3.687
57197W        W10093  26.878   3.462   8.857
57198W        W10094   2.674  19.615   7.603
57199W        W10095  21.417  29.874   3.233
57200W        W10096  33.089   0.997   9.339
57201W        W10097   8.931   2.783   9.367
57202W        W10098  32.503   1.750   3.458
57203W        W10099  20.437   2.177   8.271
57204W        W10100  35.715  22.832   3.036
57205W        W10101   0.485   5.262   0.589
57206W        W10102  26.085   5.020   9.359
57207W        W10103  28.516  28.244   7.096
57208W        W10104  34.289  33.521   9.041
57209W        W10105  20.774  22.514   1.262
57210W        W10106   4.775   2.034   8.516
57211W        W10107  32.711   4.409   2.880
57212W        W10108   5.574  34.447   1.555
57213W        W10109  18.905  30.667   1.838
57214W        W10110  10.560   1.175   8.834
57215W        W10111   5.267   3.225   0.008
57216W        W10112  28.077   2.331   3.543
57217W        W10113  31.243   7.675   9.575
57218W        W10114  10.947  30.292   1.449
57219W        W10115  29.284  21.505   0.420
57220W        W10116  19.195   2.017   1.919
57221W        W10117   8.669  20.508   8.643
57222W        W10118  13.228  22.796   9.076
57223W        W10119  31.854  18.619   3.483
57224W        W10120  20.710  11.054   8.040
57225W        W10121  30.125  32.837   2.473
57226W        W10122   5.906  30.417   0.302
57227W        W10123  25.546   4.951   9.903
57228W        W10124  16.617  15.394   2.823
57229W        W10125   6.222  20.216   2.259
57230W        W10126  23.118  21.286   8.926
57231W        W10127   6.505  25.624   3.186
57232W        W10128  11.663   2.252   9.100
57233W        W10129  26.333  26.202   0.115
57234W        W10130  28.224  14.768   2.625
57235W        W10131  27.477   5.181   2.196
57236W        W10132   3.397  34.640   3.699
57237W        W10133  26.087  11.364   8.624
57238W        W10134  13.494  23.621   0.084
57239W        W10135  33.102  24.488   3.022
57240W        W10136  14.497  13.901   7.899
57241W        W10137  30.935   2.564   0.242
57242W        W10138  35.481  12.155   9.495
57243W        W10139  24.983  21.784   9.018
57244W        W10140  34.787  24.407   0.139
57245W        W10141  20.367   9.431   7.941
57246W        W10142  14.485  13.091   7.752
57247W        W10143   9.231  14.704  10.098
57248W        W10144  32.931  25.586   1.443
57249W        W10145   4.024   6.053   7.392
57250W        W10146  13.804  22.970   0.070
57251W        W10147  14.800   4.572   9.176
57252W        W10148  21.992   8.832   9.425
57253W        W10149  21.155  17.284   0.070
57254W        W10150  19.732  21.411   0.096
57255W        W10151  30.928   3.005   9.642
57256W        W10152   3.179   8.985   2.369
57257W        W10153  32.696  34.354   2.967
57258W        W10154  11.352  21.587  10.261
57259W        W10155  33.885  11.678   9.869
57260W        W10156  34.182  11.033  10.207
57261W        W10157  10.072   6.414   0.697
57262W        W10158  33.325  16.311   0.111
57263W        W10159  17.890  18.565   1.522
57264W        W10160  26.272  11.474   0.258
57265W        W10161  32.076  33.939   1.417
57266W        W10162   2.555  32.096   1.284
57267W        W10163  24.497   3.704   8.442
57268W        W10164  33.859   6.640   9.764
57269W        W10165   9.937   6.621   0.335
57270W        W10166  13.168  25.253   2.304
57271W        W10167  32.272   3.939   9.098
57272W        W10168  27.505  18.381   8.609
57273W        W10169  31.637  29.953   7.916
57274W        W10170  22.111  20.883   9.847
57275W        W10171  15.536   3.234   9.689
57276W        W10172  15.774   0.481   8.687
57277W        W10173  14.832  27.301   1.903
57278W        W10174  16.099  10.132   1.917
57279W        W10175   7.998  22.185   0.569
57280W        W10176   9.057  28.418   2.350
57281W        W10177  26.143  30.373   0.296
57282W        W10178  21.452  17.712   0.503
57283W        W10179  31.432   1.938   2.853
57284W        W10180  30.414  34.727   9.471
57285W        W10181  11.911  13.541   1.624
57286W        W10182   3.089   1.486   1.954
57287W        W10183  29.713  20.683   9.696
57288W        W10184  19.951  21.272   0.670
57289W        W10185  16.470  32.277   9.477
57290W        W10186   2.966  20.644   8.441
57291W        W10187  25.260   9.997   2.690
57292W        W10188  22.987  11.818   2.764
57293W        W10189  11.209   9.120   9.416
57294W        W10190  21.579  20.195   9.999
57295W        W10191   2.768   5.389   0.986
57296W        W10192   4.307   6.259   1.186
57297W        W10193  32.497  21.895   8.400
57298W        W10194  22.382  10.418   8.142
57299W        W10195  28.979  20.279   8.495
57300W        W10196  32.889  31.569   2.422
57301W        W10197   4.736  19.774   2.714
57302W        W10198  18.123  10.587   2.628
57303W        W10199   7.757   7.238  10.289
57304W        W10200  27.927  11.346   9.746
57305W        W10201  10.977  15.128   0.702
57306W        W10202  24.333  10.187   2.294
57307W        W10203  19.751   1.453   2.797
57308W        W10204  25.407  12.460   3.066
57309W        W10205  34.992  35.285   1.997
57310W        W10206   9.580   1.446   7.766
57311W        W10207  22.530  32.133   2.374
57312W        W10208  30.893  33.335   0.517
57313W        W10209  26.029   5.144   2.152
57314W        W10210  29.376  31.342   3.096
57315W        W10211  15.883  28.723   1.141
57316W        W10212  21.682  28.525   0.790
57317W        W10213   8.610  28.403   8.753
57318W        W10214   9.397  27.228  10.070
57319W        W10215   2.341  17.932  10.281
57320W        W10216  26.088   6.038   1.764
57321W        W10217   7.043  28.822   9.441
57322W        W10218  13.480  16.529   2.441
57323W        W10219  30.714  32.526   9.079
57324W        W10220  25.310  28.088   2.875
57325W        W10221  33.954  17.530   1.764
57326W        W10222  14.334  11.854  10.251
57327W        W10223  23.881  20.039   2.040
57328W        W10224  30.613  11.947   2.527
57329W        W10225  10.910   9.417   1.401
57330W        W10226  29.141  32.982   2.668
57331W        W10227   1.431  20.593   8.884
57332W        W10228  20.054   8.067  10.314
57333W        W10229   3.989  11.737   1.168
57334W        W10230   6.884  18.806   8.709
57335W        W10231  25.282   2.612   8.234
57336W        W10232   1.761  21.020  10.217
57337W        W10233  20.295  29.716  10.297
57338W        W10234  11.966  26.489   7.337
57339W        W10235  18.853   8.036   0.154
57340W        W10236  35.877   8.554  10.046
57341W        W10237  18.437  18.006   9.868
57342W        W10238  30.505   0.378   9.085
57343W        W10239  33.821  30.018   4.181
57344W        W10240   1.352  23.549  10.070
57345W        W10241  28.918  31.241   0.600
57346W        W10242  34.827  30.724  10.275
57347W        W10243   4.270  30.584   0.813
57348W        W10244  13.842  20.710   0.414
57349W        W10245  28.711  16.138   7.745
57350W        W10246  10.130  32.863   2.341
57351W        W10247  14.985  31.000   2.169
57352W        W10248   6.799  14.671   8.067
57353W        W10249  21.264  32.642   2.321
57354W        W10250   4.752  34.779   2.823
57355W        W10251  35.084   0.811   2.714
57356W        W10252   3.515  15.513   1.942
57357W        W10253   9.259  24.198   1.672
57358W        W10254  28.234  24.159   3.370
57359W        W10255  23.678  14.026   2.650
57360W        W10256  23.959  22.401   2.218
57361W        W10257   7.779  32.492   9.778
57362W        W10258   4.476  16.351   8.967
57363W        W10259  15.898  13.654   8.034
57364W        W10260  26.901  32.614   2.722
57365W        W10261   1.986   2.570   9.017
57366W        W10262  20.198  12.066   3.108
57367W        W10263  20.647   3.554   1.293
57368W        W10264  34.121  11.154   1.559
57369W        W10265  10.117  23.501   9.857
57370W        W10266  16.405  17.684   0.959
57371W        W10267  22.313  15.943   3.529
57372W        W10268  27.889   8.419   1.223
57373W        W10269  35.457   7.557   0.797
57374W        W10270  10.861  26.426   2.810
57375W        W10271  28.395  25.944   8.107
57376W        W10272  10.143  14.147   9.610
57377W        W10273  10.123  33.631   8.434
57378W        W10274  27.681  17.754   8.539
57379W        W10275  18.401  15.442   3.567
57380W        W10276  29.886  20.986   0.987
57381W        W10277   6.680  35.294   2.435
57382W        W10278  21.712  16.982   2.237
57383W        W10279  24.031  34.044   2.057
57384W        W10280  26.080  16.560   8.163
57385W        W10281   0.105  23.008   7.952
57386W        W10282   5.106  10.787   9.373
57387W        W10283  34.896   4.618   8.760
57388W        W10284  16.510  29.942   9.496
57389W        W10285  16.967   9.679   7.652
57390W        W10286  16.310   6.186   9.597
57391W        W10287  34.308   3.985   1.483
57392W        W10288  25.881  18.479   0.770
57393W        W10289   6.036   9.544   2.717
57394W        W10290  30.290   5.055   0.633
57395W        W10291  35.075  25.756   2.416
57396W        W10292   9.848  11.911   1.464
57397W        W10293  20.277  17.268   2.562
57398W        W10294  13.355  13.646   2.908
57399W        W10295  14.421  22.880   2.711
57400W        W10296  17.860  21.069   9.606
57401W        W10297   7.833  33.537   0.740
57402W        W10298  29.605  28.339   2.995
57403W        W10299  29.614  17.982   7.717
57404W        W10300  30.806  20.706   0.947
57405W        W10301  20.715  27.091  10.033
57406W        W10302  18.859   7.055   2.356
57407W        W10303   7.668  24.495   2.436
57408W        W10304  20.152  15.382   8.479
57409W        W10305  12.057  23.780   8.586
57410W        W10306  17.994  14.240   0.042
57411W        W10307  16.910  32.208   9.721
57412W        W10308  20.623   6.448   2.129
57413W        W10309   1.472  28.765   9.658
57414W        W10310  10.836  29.828   1.191
57415W        W10311  21.084   2.466   2.896
57416W        W10312  29.201  13.293   3.010
57417W        W10313  22.366   9.991   2.715
57418W        W10314   8.351  31.521   7.694
57419W        W10315   2.187  30.530   2.457
57420W        W10316  28.814  35.991   7.657
57421W        W10317  11.983  15.641   3.504
57422W        W10318  31.883  16.382   7.157
57423W        W10319   4.646  11.172   3.099
57424W        W10320  12.420  29.839   9.091
57425W        W10321  21.768  20.150   3.793
57426W        W10322  17.596  25.859   0.643
57427W        W10323  31.962   8.113   0.286
57428W        W10324  23.974  21.244   8.316
57429W        W10325   3.507  23.115   1.044
57430W        W10326  10.767   8.648   2.637
57431W        W10327  26.162   2.465   8.036
57432W        W10328   7.274  11.147   0.176
57433W        W10329   3.261  35.086   3.025
57434W        W10330  14.894   3.999   8.834
57435W        W10331   1.266   5.516   1.945
57436W        W10332  21.015  20.097   0.754
57437W        W10333  33.652  23.395   2.303
57438W        W10334   0.979   9.351   8.726
57439W        W10335  28.741  11.119   8.414
57440W        W10336  11.306   5.220   2.665
57441W        W10337   3.308  28.018   2.086
57442W        W10338   9.020   8.324   7.051
57443W        W10339  10.370  32.461   2.530
57444W        W10340  10.256   8.708   7.864
57445W        W10341  17.358  28.389   1.984
57446W        W10342  21.910   3.653   1.032
57447W        W10343   9.370  18.446   1.514
57448W        W10344  17.458  20.356   1.668
57449W        W10345  16.545   2.682   2.519
57450W        W10346  31.278  21.536   8.560
57451W        W10347  10.769  21.369   2.495
57452W        W10348  18.172   4.943   0.253
57453W        W10349  25.963   7.099   8.696
57454W        W10350   6.511  34.618   9.655
57455W        W10351  31.086   5.663   1.884
57456W        W10352  20.508  17.932   8.499
57457W        W10353  21.342   5.298   2.513
57458W        W10354  17.180  13.118   9.894
57459W        W10355   7.555  29.438   1.738
57460W        W10356  14.486   0.997   2.987
57461W        W10357  29.501  15.490   0.225
57462W        W10358  19.753  12.962   8.503
57463W        W10359  35.539   5.364   7.991
57464W        W10360  15.203   6.282   2.854
57465W        W10361  31.422  29.177   0.990
57466W        W10362   3.986  35.775   8.553
57467W        W10363   0.274   3.297   0.481
57468W        W10364  13.106   8.915   7.879
57469W        W10365  25.649   7.059   9.911
57470W        W10366  21.801  12.595  10.064
57471W        W10367   8.977  14.732   0.553
57472W        W10368  21.332  32.786   1.462
57473W        W10369  34.522  35.565   9.320
57474W        W10370  22.986   2.113   2.185
57475W        W10371   8.512  16.529   1.905
57476W        W10372  24.106  30.746  10.295
57477W        W10373   4.128  24.398   2.591
57478W        W10374  14.141  12.850   0.305
57479W        W10375  16.965  25.508   0.402
57480W        W10376  20.067  29.819   9.781
57481W        W10377   9.851  29.332   3.028
57482W        W10378  18.507  30.394   3.057
57483W        W10379  11.592  33.570   9.185
57484W        W10380  27.704   6.818   8.328
57485W        W10381  23.827  15.948   1.155
57486W        W10382  18.368   2.763   0.664
57487W        W10383  34.441  16.614   2.695
57488W        W10384   8.698  32.663   8.830
57489W        W10385  31.964   0.840   1.133
57490W        W10386  19.302  35.590   1.276
57491W        W10387   2.834  23.284   8.666
57492W        W10388   5.712  20.968  10.291
57493W        W10389  29.126  31.427   9.984
57494W        W10390  23.553   2.641   2.312
57495W        W10391   4.344   7.693   8.025
57496W        W10392  11.109   3.944   9.647
57497W        W10393  19.488  15.700   1.342
57498W        W10394  22.268  11.703   3.164
57499W        W10395   3.127  23.628   3.575
57500W        W10396  32.498   9.685   8.224
57501W        W10397  25.625  22.861   2.697
57502W        W10398   5.549  18.417   2.074
57503W        W10399  29.326  19.774   8.649
57504W        W10400   9.544  17.001   9.248
57505W        W10401   4.940   5.246   0.920
57506W        W10402  13.996  12.757   9.236
57507W        W10403  28.441   3.844   9.055
57508W        W10404  10.576   4.463   1.833
57509W        W10405  24.517  33.518   7.566
57510W        W10406  19.273  28.312   3.006
57511W        W10407   7.710   1.795  10.049
57512W        W10408  31.267  13.329   9.328
57513W        W10409   5.223  24.926   1.789
57514W        W10410  30.622   9.872   8.448
57515W        W10411  30.112  23.387   9.556
57516W        W10412  11.691  31.639  10.200
57517W        W10413  15.044  32.329  10.227
57518W        W10414  31.546  17.417   8.739
57519W        W10415   7.286  11.065   8.827
57520W        W10416  31.760  32.456   8.351
57521W        W10417  35.981  19.068   7.862
57522W        W10418  20.952  19.528   1.310
57523W        W10419  21.237  28.718   6.968
57524W        W10420  12.533  25.318   8.716
57525W        W10421   9.908  11.879   0.979
57526W        W10422  19.101  19.014   0.482
57527W        W10423  21.456  10.008   1.825
57528W        W10424   2.374   2.441   7.630
57529W        W10425  24.095  34.476   9.698
57530W        W10426   0.063  33.672   2.569
57531W        W10427  35.529  24.807   2.981
57532W        W10428  30.937  33.015   9.009
57533W        W10429  27.430  35.165   8.968
57534W        W10430  18.151  27.592   0.392
57535W        W10431  31.782  10.379   0.135
57536W        W10432   1.997  20.360   0.662
57537W        W10433  31.637  10.627  10.004
57538W        W10434  29.687  23.480   9.304
57539W        W10435   6.657  21.605   0.633
57540W        W10436   5.460  24.253   0.485
57541W        W10437  21.869   3.437   8.219
57542W        W10438  11.840   9.266   0.667
57543W        W10439  11.652   6.832   1.488
57544W        W10440  34.837  19.836   8.468
57545W        W10441  21.709  25.594   3.059
57546W        W10442  19.335  33.713   9.753
57547W        W10443  27.177  21.177   8.510
57548W        W10444  23.469   3.911   2.852
57549W        W10445   1.697  12.360   3.035
57550W        W10446  15.584  19.237  10.075
57551W        W10447  32.401  12.824   0.282
57552W        W10448  31.616  35.000   1.105
57553W        W10449  35.311  30.850  10.132
57554W        W10450  21.702  17.007   1.281
57555W        W10451  14.657  33.198  10.212
57556W        W10452  15.219   9.891   3.340
57557W        W10453  20.263   4.619   3.272
57558W        W10454  23.525  31.662   8.778
57559W        W10455  23.489  25.752   3.244
57560W        W10456  28.049  35.099   2.643
57561W        W10457  22.298  21.851   1.894
57562W        W10458   4.213  16.404   0.161
57563W        W10459  28.766  21.271   7.004
57564W        W10460   7.687  18.283   0.037
57565W        W10461  30.444  22.480   8.011
57566W        W10462  15.204  17.319   3.191
57567W        W10463  26.621   6.931   8.217
57568W        W10464  32.214   9.142   9.078
57569W        W10465  26.189  17.958   0.460
57570W        W10466   4.138  20.407   0.142
57571W        W10467   9.236   1.950   3.102
57572W        W10468  24.432  29.431   7.279
57573W        W10469   4.678   9.266   7.962
57574W        W10470  15.774  22.356   0.818
57575W        W10471  15.634  15.831   7.985
57576W        W10472  23.780  33.867   8.046
57577W        W10473   3.017   5.003   0.887
57578W        W10474  33.569   2.546   2.112
57579W        W10475  18.225  16.218   8.922
57580W        W10476   2.209  15.821   7.500
57581W        W10477   5.345  21.805   1.836
57582W        W10478  24.979  30.635  10.277
57583W        W10479  10.982  13.958   0.937
57584W        W10480  17.413   4.499   7.920
57585W        W10481  33.812  12.548   2.675
57586W        W10482   3.038  22.890   1.759
57587W        W10483   4.102  22.820   9.709
57588W        W10484  27.841  22.711   8.477
57589W        W10485  31.961  12.630   7.112
57590W        W10486  13.054  16.738   0.371
57591W        W10487   7.130  34.532   1.562
57592W        W10488  10.129  31.766   2.039
57593W        W10489   3.500  24.592   2.823
57594W        W10490  13.666   0.042   7.605
57595W        W10491   3.138  17.255   8.061
57596W        W10492  29.104  20.409   0.274
57597W        W10493  24.466   0.884   2.566
57598W        W10494   2.249  35.044   8.941
57599W        W10495   3.075  19.065   9.167
57600W        W10496  34.036  18.776   2.741
57601W        W10497  24.036  14.314   9.452
57602W        W10498  34.004   0.289   0.644
57603W        W10499  30.992  27.124   8.837
57604W        W10500  22.984   9.543   7.754
57605W        W10501  26.872  17.732   1.248
57606W        W10502   9.247  23.138   0.222
57607W        W10503  19.230  27.128   1.542
57608W        W10504  29.851  27.674   8.911
57609W        W10505   1.546  25.453   8.508
57610W        W10506   2.338  15.726   1.226
57611W        W10507  10.188  27.681   0.572
57612W        W10508   4.941  31.348   9.194
57613W        W10509  20.191  31.877   2.799
57614W        W10510  34.734   9.826   9.319
57615W        W10511   7.195  13.997   3.032
57616W        W10512  35.705  15.763   7.565
57617W        W10513   7.773  30.767   7.648
57618W        W10514  20.995  32.267   7.831
57619W        W10515  22.085  35.166   9.526
57620W        W10516  11.750  33.379   0.388
57621W        W10517   4.791  13.162   2.167
57622W        W10518  28.179  34.075   7.654
57623W        W10519  28.374  28.841   9.388
57624W        W10520  21.984  30.327   8.604
57625W        W10521  12.583  30.338   9.824
57626W        W10522  30.744  22.932   7.989
57627W        W10523  13.765  35.950   9.070
57628W        W10524  19.082   1.982   3.219
57629W        W10525  28.679  31.673   9.961
57630W        W10526  14.800   3.143   2.036
57631W        W10527   1.727  22.797   1.400
57632W        W10528  35.740  32.934  10.146
57633W        W10529  20.178  33.450   1.982
57634W        W10530  17.880  32.564   2.365
57635W        W10531  32.244   8.625   2.811
57636W        W10532  33.103  19.106   2.352
57637W        W10533   2.355  10.326   3.789
57638W        W10534  24.053   5.386   8.784
57639W        W10535  27.320  26.205   2.018
57640W        W10536   7.961  17.292   9.702
57641W        W10537  31.831   3.017   1.239
57642W        W10538   0.365   9.762   9.072
57643W        W10539  30.935  13.458   0.408
57644W        W10540  15.849  17.206   2.358
57645W        W10541  27.817  21.544   2.014
57646W        W10542   4.017  18.561   8.543
57647W        W10543  29.188  19.803   1.523
57648W        W10544  28.304  29.496   7.583
57649W        W10545   3.283   7.644   7.685
57650W        W10546  32.428  28.384   7.851
57651W        W10547  27.751   0.881   1.682
57652W        W10548   4.516  20.987  10.186
57653W        W10549   8.608   5.110   8.301
57654W        W10550  25.250  25.565   1.325
57655W        W10551  11.993  23.339   3.007
57656W        W10552   1.295  22.109   9.438
57657W        W10553  26.166  13.080   1.304
57658W        W10554  23.464   8.449   1.497
57659W        W10555  34.273  32.953   4.024
57660W        W10556   0.484  22.845   8.651
57661W        W10557  18.491   2.764   8.940
57662W        W10558   3.332  25.921   1.320
57663W        W10559  25.827   2.531  10.068
57664W        W10560  27.861  24.765   1.667
57665W        W10561  17.291   8.647   8.989
57666W        W10562  32.195   4.649   8.475
57667W        W10563   6.877  18.081   9.066
57668W        W10564  23.229  20.380   2.236
57669W        W10565  20.790   3.270   8.076
57670W        W10566  18.792  11.121   1.703
57671W        W10567   7.767  30.617   2.288
57672W        W10568   6.299  29.366   0.363
57673W        W10569  16.793  19.499   0.786
57674W        W10570  31.701  27.975   3.523
57675W        W10571  19.621   9.584   0.249
57676W        W10572  22.669  26.265   9.969
57677W        W10573  25.463  35.778   0.250
57678W        W10574  14.406  17.753   3.781
57679W        W10575  13.190  26.612   1.891
57680W        W10576  21.549  14.457   7.549
57681W        W10577   5.662   7.510  10.178
57682W        W10578  24.134  24.423   8.427
57683W        W10579   1.280  22.102   8.581
57684W        W10580   8.731  23.777   7.359
57685W        W10581  17.240   2.947   0.847
57686W        W10582  23.972  28.293   7.407
57687W        W10583  20.704  25.030   3.094
57688W        W10584   4.555  27.046   0.677
57689W        W10585  23.259  22.206   1.704
57690W        W10586  10.108  19.453   0.159
57691W        W10587  28.913   9.025   8.644
57692W        W10588   4.988  15.536   9.133
57693W        W10589  20.233  19.202   8.807
57694W        W10590  24.546  33.277   9.260
57695W        W10591  20.462   9.014   1.052
57696W        W10592  21.196   3.678   1.809
57697W        W10593  29.968   0.271   1.859
57698W        W10594  15.481  32.904   9.425
57699W        W10595  20.190   8.199   9.791
57700W        W10596  33.345  18.995   1.453
57701W        W10597   7.003   3.166   8.003
57702W        W10598   8.095  23.531   3.103
57703W        W10599   8.237  24.352   7.208
57704W        W10600  34.344  18.128   9.552
57705W        W10601  17.142  34.552   8.260
57706W        W10602  10.761  24.923   9.057
57707W        W10603  12.424   7.264   1.970
57708W        W10604  15.694   5.838  10.150
57709W        W10605  29.176   5.993   0.991
57710W        W10606  29.059  17.203   8.745
57711W        W10607  23.247  12.317   3.411
57712W        W10608   2.381  29.165   9.571
57713W        W10609   2.339  30.290   8.599
57714W        W10610  13.741  30.949  10.315
57715W        W10611  16.261   8.270   0.845
57716W        W10612  15.407   1.636   2.442
57717W        W10613  23.200  18.948   2.073
57718W        W10614  13.074   2.572   3.291
57719W        W10615  31.469   6.880   8.455
57720W        W10616  11.792  24.461   9.339
57721W        W10617  19.233  14.235   0.137
57722W        W10618  11.606   4.063   8.827
57723W        W10619  35.399   1.133   1.574
57724W        W10620  29.152  10.192   1.210
57725W        W10621   4.171  31.674   0.200
57726W        W10622   2.671  31.233   2.845
57727W        W10623   4.487  26.482   2.274
57728W        W10624  28.423  28.036   2.455
57729W        W10625  28.308  12.347   7.768
57730W        W10626  16.153   9.623   1.978
57731W        W10627  24.184   9.160  10.169
57732W        W10628  19.945   3.742   8.334
57733W        W10629  10.172   7.448   2.502
57734W        W10630  11.640   6.034   2.192
57735W        W10631  26.922  10.676   8.624
57736W        W10632  11.973  12.808   2.479
57737W        W10633  31.420  29.764   9.360
57738W        W10634  31.333   2.300   2.501
57739W        W10635  30.848  32.650  10.313
57740W        W10636  18.927  20.738   0.888
57741W        W10637  32.154  14.596   8.512
57742W        W10638   8.329  19.218   8.970
57743W        W10639  15.917   5.814   9.737
57744W        W10640  11.883  29.746   1.175
57745W        W10641   3.542  24.581   2.084
57746W        W10642   8.972  23.244   0.731
57747W        W10643  17.432  31.833   0.410
57748W        W10644  29.490  13.671   3.373
57749W        W10645   6.441  30.012   9.991
57750W        W10646  30.978   4.163   8.787
57751W        W10647  30.945  35.844   0.090
57752W        W10648  18.445  12.447   8.130
57753W        W10649  16.416  27.165   2.639
57754W        W10650  16.307  22.732   3.020
57755W        W10651  31.993  25.222   0.553
57756W        W10652  30.969  27.283   7.473
57757W        W10653  24.505  18.438   2.803
57758W        W10654  24.878  31.043   0.253
57759W        W10655  15.109  31.190   8.797
57760W        W10656  15.122  22.547   0.075
57761W        W10657  12.193  29.159   2.819
57762W        W10658  21.863  35.807   1.494
57763W        W10659   2.728  17.981   2.107
57764W        W10660   2.951   5.862   2.367
57765W        W10661  28.779  30.594   9.982
57766W        W10662  10.459  31.297   7.743
57767W        W10663  20.213  10.363   0.653
57768W        W10664  31.063  15.768   8.175
57769W        W10665  13.257  18.697   2.198
57770W        W10666  21.068  34.467   0.116
57771W        W10667  34.665  32.147   8.747
57772W        W10668  31.820  23.424   8.995
57773W        W10669  13.834   6.686   0.470
57774W        W10670   7.045  28.277   9.822
57775W        W10671  27.921  14.252  10.239
57776W        W10672  17.446   5.143   3.047
57777W        W10673  26.378  28.360   9.638
57778W        W10674  31.295  28.062   8.808
57779W        W10675   4.213   9.929   7.622
57780W        W10676  25.580  32.146   9.992
57781W        W10677  31.391   7.968   2.757
57782W        W10678   9.652  17.320   8.851
57783W        W10679  21.746  14.322   0.807
57784W        W10680   7.270  33.829   9.673
57785W        W10681  21.493  34.161   0.325
57786W        W10682  22.324  27.090  10.302
57787W        W10683   1.369  12.757   8.027
57788W        W10684  11.424  31.801   0.617
57789W        W10685   2.460  15.786   2.350
57790W        W10686  26.598   0.085   8.432
57791W        W10687  18.223   7.922   9.635
57792W        W10688   0.727  10.246   7.636
57793W        W10689  18.122   8.161   7.476
57794W        W10690  18.636   3.141   4.301
57795W        W10691   3.475  17.980   9.388
57796W        W10692  16.740   3.408   7.319
57797W        W10693   7.213  19.586   0.205
57798W        W10694  31.543  14.466   3.100
57799W        W10695   7.928  25.408   0.098
57800W        W10696   4.197  29.464   2.924
57801W        W10697  11.109   7.883   1.950
57802W        W10698   0.431   8.705   3.780
57803W        W10699  16.507   5.422   1.957
57804W        W10700  34.012  22.362   8.135
57805W        W10701  15.332  14.426   9.723
57806W        W10702  30.003  22.000   9.586
57807W        W10703  21.962  23.294   0.741
57808W        W10704  25.810   6.741   9.509
57809W        W10705  16.400   9.865   2.322
57810W        W10706   4.571  13.062   0.838
57811W        W10707  24.022  10.011   1.537
57812W        W10708  24.817  34.344   0.739
57813W        W10709  32.896   5.578   2.805
57814W        W10710  11.999  10.515   8.197
57815W        W10711  17.275   1.688   9.674
57816W        W10712  30.844  13.280   2.976
57817W        W10713  33.603  20.519   8.451
57818W        W10714  14.488  32.011   7.399
57819W        W10715   1.509  28.571   3.329
57820W        W10716   5.138   0.149   1.929
57821W        W10717  22.025   5.847  10.058
57822W        W10718  11.315   9.249   7.060
57823W        W10719  23.229   6.454   3.091
57824W        W10720  33.306  11.850   1.368
57825W        W10721  11.787   5.455   9.573
57826W        W10722  16.494   7.959   2.615
57827W        W10723   3.687  31.248   8.791
57828W        W10724   3.913   9.681   9.651
57829W        W10725  14.262  13.739   9.371
57830W        W10726  16.243  19.400   8.590
57831W        W10727  10.167  35.060  10.099
57832W        W10728  22.727  16.888   0.925
57833W        W10729  16.764   4.213   2.603
57834W        W10730   6.693   8.748   1.225
57835W        W10731  22.487  25.413   2.040
57836W        W10732  34.945  19.123   2.699
57837W        W10733  24.361  13.620   1.379
57838W        W10734  31.462   2.791   0.720
57839W        W10735  26.329  34.557   2.605
57840W        W10736  30.071  34.176  10.178
57841W        W10737  19.925   3.460   3.540
57842W        W10738  24.433   6.903   8.939
57843W        W10739  35.038  26.464   9.834
57844W        W10740  33.202   6.960   1.146
57845W        W10741   8.316  10.074   2.914
57846W        W10742  12.140   5.435   8.382
57847W        W10743   9.645   9.919   1.417
57848W        W10744   7.502   7.874   0.317
57849W        W10745   0.359   7.839   3.317
57850W        W10746  11.678  24.162   2.464
57851W        W10747   7.068  13.157   0.486
57852W        W10748  13.865  33.335  10.300
57853W        W10749  22.003  12.457   1.608
57854W        W10750  15.638   8.739   9.554
57855W        W10751  10.841  27.265   9.431
57856W        W10752  14.535  35.467   2.819
57857W        W10753  27.961  23.366   9.095
57858W        W10754  21.514   6.115   0.531
57859W        W10755  33.059  10.831   7.757
57860W        W10756  30.487  32.225   8.314
57861W        W10757  31.076  16.578   8.514
57862W        W10758   7.443  14.446   8.029
57863W        W10759  32.027  24.158   9.402
57864W        W10760  28.305  19.189   9.436
57865W        W10761  24.905  33.177   8.008
57866W        W10762  17.956  35.453   3.439
57867W        W10763   5.433  19.298   8.370
57868W        W10764  31.481  18.084   1.337
57869W        W10765  33.797  31.924   8.226
57870W        W10766   0.105   4.918   9.070
57871W        W10767   0.659  26.149   1.783
57872W        W10768   4.615  19.053   8.157
57873W        W10769  29.529  22.659   9.336
57874W        W10770  25.539  19.787   9.304
57875W        W10771  20.173  32.567   0.708
57876W        W10772  17.169  11.591  10.098
57877W        W10773  11.524  29.647  10.132
57878W        W10774  26.395  11.168  10.223
57879W        W10775  12.471   9.860   0.798
57880W        W10776  30.454  20.211   7.702
57881W        W10777  28.582  18.332   2.653
57882W        W10778   7.910  24.287   7.638
57883W        W10779  33.213  11.834   8.120
57884W        W10780  31.813  23.099   3.299
57885W        W10781  12.507  26.412   1.127
57886W        W10782  13.368  33.067   9.980
57887W        W10783  33.174  32.762   9.364
57888W        W10784  33.672  24.905   9.912
57889W        W10785  28.992  12.297   0.460
57890W        W10786  19.760  19.208   2.790
57891W        W10787  20.201  12.437   2.749
57892W        W10788  26.555  19.604   8.929
57893W        W10789   6.683  25.134   1.495
57894W        W10790  13.965  19.269   0.932
57895W        W10791  35.308  11.770   9.262
57896W        W10792  13.310   1.235   9.186
57897W        W10793  14.255  18.878   0.777
57898W        W10794  12.254   4.806   8.418
57899W        W10795  19.969  18.084   0.109
57900W        W10796   5.444  22.513   3.675
57901W        W10797  30.278   1.631   0.488
57902W        W10798  35.857  27.032  10.257
57903W        W10799   7.804  30.709  10.034
57904W        W10800  18.389  35.721   2.619
57905W        W10801  14.913  13.731   9.053
57906W        W10802   5.435  23.404   8.315
57907W        W10803   6.888   6.055   7.164
57908W        W10804  33.327  22.828   9.022
57909W        W10805  35.924  14.280   9.011
57910W        W10806   7.284   9.818   1.996
57911W        W10807  13.444  17.243   8.799
57912W        W10808  33.904  19.332   2.925
57913W        W10809  12.075  27.602   7.423
57914W        W10810  35.647  34.518   7.113
57915W        W10811  20.642  18.289   2.396
57916W        W10812  14.225  11.478   8.733
57917W        W10813   8.366  11.489   1.572
57918W        W10814  30.606   4.032   2.460
57919W        W10815   2.915  32.812   3.059
57920W        W10816  31.769   5.727   9.924
57921W        W10817  25.811  17.335   7.909
57922W        W10818  32.559   6.108   7.850
57923W        W10819  34.245  26.852   9.400
57924W        W10820  30.202  21.368   1.192
57925W        W10821  16.295  23.084   2.687
57926W        W10822   6.416  14.134   9.363
57927W        W10823   8.489  33.502   7.708
57928W        W10824  18.042  31.951   1.171
57929W        W10825  28.984   3.815   8.996
57930W        W10826  18.106  20.207   3.421
57931W        W10827  31.336   6.384   8.666
57932W        W10828   4.704   3.823   1.061
57933W        W10829  20.733   8.417   7.834
57934W        W10830  27.075   3.564   0.039
57935W        W10831   7.306   3.540   2.362
57936W        W10832  15.939   5.848   1.786
57937W        W10833  17.811  24.178   3.577
57938W        W10834   9.307  14.796   2.248
57939W        W10835  18.277  10.927   3.766
57940W        W10836   8.591  12.829   0.906
57941W        W10837  26.540  30.825   1.600
57942W        W10838   0.334  18.726   8.123
57943W        W10839  11.838   5.370   2.458
57944W        W10840  16.629  30.908   9.647
57945W        W10841  20.420  11.455   1.468
57946W        W10842  24.249  15.608   3.187
57947W        W10843  22.522  10.802  10.307
57948W        W10844  10.179  28.513   3.314
57949W        W10845  21.752  17.896   7.814
57950W        W10846  12.136  15.256  10.219
57951W        W10847  31.270  22.382   8.293
57952W        W10848  22.354  24.845   2.638
57953W        W10849  30.743  26.519   9.296
57954W        W10850  11.288  20.294   0.956
57955W        W10851  25.520   7.222   2.483
57956W        W10852  29.190   7.850   9.141
57957W        W10853  20.462  25.956   3.733
57958W        W10854  22.817  33.456   8.195
57959W        W10855  11.724  24.382   8.112
57960W        W10856  30.539  26.230   2.383
57961W        W10857  35.190  27.895  10.237
57962W        W10858  30.920  29.261   0.031
57963W        W10859   5.992  16.330   9.857
57964W        W10860  24.289   1.317   2.797
57965W        W10861  30.497  13.769   0.764
57966W        W10862  13.965  23.940   9.496
57967W        W10863  18.926   2.791   9.632
57968W        W10864  27.447  27.575   7.930
57969W        W10865  19.943  30.819   9.627
57970W        W10866  22.443  27.312   0.844
57971W        W10867   4.144  10.649   1.943
57972W        W10868  29.289   6.255  10.256
57973W        W10869   1.775  21.459   0.190
57974W        W10870   4.217  12.701   3.500
57975W        W10871   0.261  17.005   3.778
57976W        W10872  15.223  30.132   3.628
57977W        W10873  19.274  29.222   1.838
57978W        W10874   1.437  24.969   8.799
57979W        W10875  34.034   9.026   1.133
57980W        W10876  33.306  12.824   9.784
57981W        W10877  33.827  30.896   8.034
57982W        W10878   2.396  35.968   9.750
57983W        W10879  27.102  23.793   3.174
57984W        W10880  14.144  20.535   1.335
57985W        W10881  25.040  34.783   8.415
57986W        W10882  33.402   7.887   8.247
57987W        W10883  19.757   1.025   1.263
57988W        W10884  30.944  18.242   0.203
57989W        W10885  16.712  11.933   1.541
57990W        W10886  35.320  22.210   3.728
57991W        W10887  12.364  10.992   0.147
57992W        W10888  33.459  13.051   8.385
57993W        W10889   0.912   4.603   2.874
57994W        W10890  15.723  32.729   8.567
57995W        W10891   1.886  33.781   2.533
57996W        W10892  12.261   8.559   2.514
57997W        W10893   3.305  33.308   2.545
57998W        W10894  27.305  12.029   8.818
57999W        W10895  14.255  27.163   2.182
58000W        W10896  26.741  16.559   2.025
58001W        W10897  14.598  27.118   8.585
58002W        W10898   3.222  24.599   8.510
58003W        W10899   0.263  22.169   2.837
58004W        W10900  22.021  24.168   8.105
58005W        W10901  32.504  17.163   1.788
58006W        W10902  31.917   4.859   2.267
58007W        W10903   1.847  29.809   9.909
58008W        W10904  12.718  32.766   1.198
58009W        W10905  19.343  32.724   2.471
58010W        W10906  15.341  16.059  10.247
58011W        W10907  25.085  11.731   2.854
58012W        W10908  21.905  31.348   0.100
58013W        W10909   1.270  29.679   7.582
58014W        W10910  17.681   6.057   1.215
58015W        W10911  25.279  31.664   2.501
58016W        W10912   7.863  16.011   8.436
58017W        W10913  23.514  34.560   2.708
58018W        W10914  12.852  23.818  10.016
58019W        W10915  16.052  20.919  10.195
58020W        W10916  28.896  27.868   3.401
58021W        W10917  34.539  25.906   8.443
58022W        W10918  14.220  23.116   1.911
58023W        W10919   7.693  14.497   3.575
58024W        W10920  17.461   2.584   9.242
58025W        W10921  30.776  30.493   2.553
58026W        W10922  13.475  21.815   8.340
58027W        W10923   2.625  13.780   4.119
58028W        W10924  14.992  12.457   9.359
58029W        W10925  11.820  21.284   1.730
58030W        W10926  31.777   9.901   7.746
58031W        W10927  35.599  10.771   2.000
58032W        W10928  25.269  14.182   2.619
58033W        W10929  23.212  17.069   0.869
58034W        W10930  15.563  16.109   1.113
58035W        W10931  18.786  10.944   3.212
58036W        W10932   6.239  29.599  10.297
58037W        W10933  17.065  18.164   2.305
58038W        W10934  27.999   5.598   9.444
58039W        W10935   9.264  32.050   7.845
58040W        W10936   2.110  20.433   1.129
58041W        W10937  20.898  25.929   7.112
58042W        W10938  17.287  19.794   1.557
58043W        W10939  15.135  21.565   1.360
58044W        W10940  34.374  32.101   9.506
58045W        W10941   3.633  20.412   1.078
58046W        W10942  18.851  35.904   2.372
58047W        W10943  35.191  21.859   8.215
58048W        W10944  26.591  10.375   9.635
58049W        W10945  14.761  27.320   2.643
58050W        W10946  11.596  29.785   7.771
58051W        W10947  14.293  21.927   2.470
58052W        W10948  17.515  16.395   2.746
58053W        W10949  34.772  21.608   8.099
58054W        W10950   2.793  22.819   8.531
58055W        W10951  12.252  25.660   8.434
58056W        W10952   4.675  13.584   9.903
58057W        W10953  22.448   4.279   7.288
58058W        W10954  29.912  19.087   8.417
58059W        W10955  35.614   8.148   0.645
58060W        W10956   5.116  22.490   7.960
58061W        W10957  10.304  21.210   9.220
58062W        W10958  19.262  10.713   9.344
58063W        W10959  31.707  35.506   0.726
58064W        W10960  26.407  31.825   0.860
58065W        W10961  34.002  29.760   8.965
58066W        W10962  28.256  35.172   0.272
58067W        W10963  31.898  16.945   3.460
58068W        W10964  23.263   6.970   2.714
58069W        W10965  20.454   9.837   1.303
58070W        W10966   7.736  21.459   8.863
58071W        W10967  23.883  13.179   2.042
58072W        W10968   4.273  34.920   0.894
58073W        W10969   2.213  28.432   9.981
58074W        W10970  32.070  34.787   1.813
58075W        W10971   9.079  10.377   1.179
58076W        W10972  31.992   9.512   3.670
58077W        W10973  21.390   6.357   1.462
58078W        W10974   6.365  16.043   0.530
58079W        W10975  19.722  28.425   3.042
58080W        W10976  33.941  34.620  10.329
58081W        W10977  16.703  29.959   7.998
58082W        W10978   7.969   3.923  10.085
58083W        W10979   1.803  19.743   7.795
58084W        W10980  21.198  17.606   8.913
58085W        W10981  31.283  14.586   3.479
58086W        W10982   5.690   1.803   3.020
58087W        W10983   6.110  14.679   3.987
58088W        W10984  16.201  29.822   8.143
58089W        W10985   6.622  29.727   2.740
58090W        W10986  17.115  14.881  10.156
58091W        W10987   2.312  35.453   1.958
58092W        W10988  26.360   2.522   2.751
58093W        W10989  30.709   8.233   1.303
58094W        W10990  25.099  14.173   7.733
58095W        W10991   2.638  28.743   7.484
58096W        W10992  17.925  11.143   0.043
58097W        W10993  19.383  27.810   8.894
58098W        W10994  25.759  32.656   3.221
58099W        W10995   3.296  10.928   7.576
58100W        W10996  27.147  12.955   0.104
58101W        W10997  30.173   6.220   8.107
58102W        W10998  22.528  14.886   1.613
58103W        W10999   3.607  11.434   9.266
58104W        W11000  16.752   8.425   2.757
58105W        W11001  24.437  14.614   8.515
58106W        W11002  33.170  19.922   2.407
58107W        W11003  12.181   8.548   7.955
58108W        W11004   0.990   9.999   8.003
58109W        W11005  13.793   3.808   9.618
58110W        W11006  16.034  15.518   9.332
58111W        W11007   0.240  35.833   9.817
58112W        W11008  21.232  17.240   0.618
58113W        W11009   2.657  29.756   0.191
58114W        W11010   1.351  17.151   2.040
58115W        W11011  22.807  34.842   0.475
58116W        W11012   4.866   7.508   9.376
58117W        W11013  23.209  18.684   0.382
58118W        W11014  13.365  19.696  10.258
58119W        W11015   6.795   1.473  10.053
58120W        W11016  30.206  28.279   8.025
58121W        W11017  17.115  25.888   0.789
58122W        W11018  15.105  19.676   7.941
58123W        W11019  14.879  14.180   0.206
58124W        W11020   5.858  32.089   8.599
58125W        W11021  18.853  15.585   0.491
58126W        W11022   1.629   2.307   2.468
58127W        W11023   3.762   1.472   7.759
58128W        W11024  14.658  26.790   1.847
58129W        W11025  28.565  30.178   8.786
58130W        W11026  32.443  21.491   3.710
58131W        W11027  21.648  27.678   3.128
58132W        W11028  21.508  35.467   9.378
58133W        W11029   7.158  22.927   8.271
58134W        W11030   1.950  13.776   1.979
58135W        W11031   0.274  18.073  10.036
58136W        W11032   5.359  14.988   0.712
58137W        W11033  32.351  20.301   1.984
58138W        W11034   2.755  24.485   3.210
58139W        W11035  12.684  12.608   8.406
58140W        W11036  32.994  19.268   9.576
58141W        W11037  10.625   1.787   2.375
58142W        W11038  10.076  13.088   2.593
58143W        W11039   0.220   2.399   9.843
58144W        W11040  14.044  20.245   9.951
58145W        W11041   8.069  22.946   7.719
58146W        W11042  17.340  22.836   3.291
58147W        W11043  22.702  25.443   8.879
58148W        W11044   6.559   7.504   2.198
58149W        W11045   8.045  32.188   0.596
58150W        W11046  30.710  25.615   1.399
58151W        W11047  22.701  29.861   1.804
58152W        W11048  12.233   2.395   9.458
58153W        W11049   4.042   4.888   0.410
58154W        W11050  33.568  20.946   1.173
58155W        W11051  17.285  31.979   9.157
58156W        W11052  21.469  15.568   0.059
58157W        W11053  28.752  13.700   9.008
58158W        W11054  27.318  23.230   2.437
58159W        W11055   4.471  20.670   7.838
58160W        W11056  29.642  21.148   7.700
58161W        W11057  24.991   5.972   8.100
58162W        W11058  35.006  33.116   2.020
58163W        W11059   7.080  33.030   0.687
58164W        W11060   9.188  28.399   1.871
58165W        W11061  22.120  12.335   1.080
58166W        W11062   1.476  13.107  10.043
58167W        W11063  32.257  33.966   2.045
58168W        W11064  26.166  34.297   9.180
58169W        W11065  10.517  31.624   2.588
58170W        W11066  23.400  18.626   3.857
58171W        W11067  23.458   2.078   2.463
58172W        W11068  31.974  33.439   1.492
58173W        W11069  24.722  34.870   0.727
58174W        W11070  29.756  24.035   9.133
58175W        W11071   1.790  21.346   2.631
58176W        W11072  26.587  18.097   7.709
58177W        W11073  14.709   3.133   8.460
58178W        W11074  28.891   7.017   3.276
58179W        W11075  30.514  28.692   1.310
58180W        W11076  29.516   4.875   2.603
58181W        W11077  35.961  32.089  10.273
58182W        W11078   3.673  15.800   9.673
58183W        W11079  15.592   4.819   8.843
58184W        W11080  36.003   5.369   1.617
58185W        W11081   6.983   7.292   0.765
58186W        W11082   0.470  15.973   9.484
58187W        W11083   8.807  23.854   9.960
58188W        W11084  20.672   0.204   0.276
58189W        W11085   8.342  27.869  10.172
58190W        W11086  22.120  17.789   4.006
58191W        W11087   2.546   4.224   9.015
58192W        W11088  21.883  29.961   3.065
58193W        W11089  24.065  18.660   0.274
58194W        W11090   2.356   5.385   0.283
58195W        W11091  14.351  16.720   0.846
58196W        W11092  24.125  30.527   1.256
58197W        W11093   3.875  12.830   0.445
58198W        W11094  32.051  10.016   0.722
58199W        W11095   7.130  21.213   1.615
58200W        W11096  20.643  10.726  10.041
58201W        W11097  23.835  35.231   9.652
58202W        W11098  18.035  26.324   1.693
58203W        W11099  12.609  23.625   9.635
58204W        W11100  27.117  27.895   9.559
58205W        W11101  29.490   9.320   1.548
58206W        W11102  32.107  17.756   1.133
58207W        W11103  20.446  12.080   0.757
58208W        W11104   5.054  17.243   8.522
58209W        W11105   1.803   2.244   8.575
58210W        W11106  26.736   5.841   9.751
58211W        W11107   2.931   1.218   9.285
58212W        W11108  22.751  21.296   8.406
58213W        W11109  31.820  20.260   8.001
58214W        W11110  34.316   9.826   7.443
58215W        W11111  11.383   5.410   1.144
58216W        W11112  35.446   6.788   2.702
58217W        W11113  33.138   1.459   7.375
58218W        W11114  12.110   8.052   8.119
58219W        W11115  23.444  23.462  10.046
58220W        W11116   0.029  21.468   8.325
58221W        W11117   3.805  30.748   8.172
58222W        W11118   9.081  18.968   3.023
58223W        W11119   7.628  12.709   9.709
58224W        W11120   2.378   8.699   1.177
58225W        W11121  34.099   3.973   1.971
58226W        W11122  23.462  12.835   2.871
58227W        W11123  18.243  32.796   1.488
58228W        W11124  10.969   0.312   9.783
58229W        W11125  21.790  11.512   0.223
58230W        W11126   8.122  18.164   1.806
58231W        W11127  33.112   2.307   2.030
58232W        W11128  30.056  11.859   1.730
58233W        W11129  10.390   0.568   8.408
58234W        W11130  16.546  32.584   0.057
58235W        W11131  34.475  33.200   3.628
58236W        W11132   6.905  24.182   1.521
58237W        W11133  20.009  33.900   9.864
58238W        W11134  24.099  19.748   0.587
58239W        W11135  14.891  26.660   8.400
58240W        W11136   4.126   4.507   0.730
58241W        W11137  10.521  22.135   7.835
58242W        W11138  19.534  19.543   8.112
58243W        W11139  34.129  25.734   9.108
58244W        W11140  22.681  18.713   0.954
58245W        W11141   0.513  21.299  10.193
58246W        W11142   6.717  27.928   0.548
58247W        W11143  33.270   6.685   0.683
58248W        W11144  21.800   7.608   2.075
58249W        W11145   6.524  21.325   2.274
58250W        W11146  29.710  14.456   1.044
58251W        W11147  13.687  19.934   2.539
58252W        W11148  19.023   6.206   0.113
58253W        W11149  16.281  18.680   9.893
58254W        W11150   7.967  31.190   0.663
58255W        W11151  34.790   8.376   0.098
58256W        W11152  22.214  12.755   3.137
58257W        W11153  30.020  27.207   9.136
58258W        W11154  15.996  27.679   0.482
58259W        W11155   4.145  21.785   0.308
58260W        W11156  29.703   9.316  10.124
58261W        W11157  18.483  15.147   1.217
58262W        W11158  11.971  20.559   3.677
58263W        W11159  33.002   9.865   2.223
58264W        W11160   6.168  20.296   8.070
58265W        W11161  15.662  20.647  10.274
58266W        W11162  32.405  22.949   1.018
58267W        W11163  31.129  25.184   2.568
58268W        W11164  31.618  15.598   1.316
58269W        W11165  32.305   3.129   1.029
58270W        W11166   7.434   4.090   2.205
58271W        W11167   9.266   2.094   9.901
58272W        W11168  34.369   5.662   7.823
58273W        W11169  25.267  19.547   3.439
58274W        W11170  13.980   2.811   7.468
58275W        W11171  10.356  27.788   1.478
58276W        W11172  21.573  14.210   3.983
58277W        W11173  28.155   0.975   1.374
58278W        W11174  18.835  13.924   0.887
58279W        W11175  11.756  20.478   0.243
58280W        W11176  25.857  24.488   1.872
58281W        W11177  19.928  16.492   2.885
58282W        W11178  23.675   6.556   2.009
58283W        W11179  17.694  13.785   1.797
58284W        W11180  32.864  20.239   8.616
58285W        W11181  20.687  33.034   8.365
58286W        W11182  30.964  11.150   3.023
58287W        W11183  28.981  19.777   3.062
58288W        W11184  10.732  32.442   2.107
58289W        W11185  12.818  13.801   9.740
58290W        W11186  29.915   6.953   2.482
58291W        W11187  10.042  25.077   8.576
58292W        W11188  14.523  26.931   8.085
58293W        W11189   8.487  34.781   3.301
58294W        W11190  34.010  22.178   2.834
58295W        W11191  12.598  27.650   9.373
58296W        W11192   3.319  20.875   7.721
58297W        W11193   2.949  19.995   2.931
58298W        W11194  29.218  34.489   1.163
58299W        W11195  27.957   1.459   3.034
58300W        W11196   6.128   0.037   2.713
58301W        W11197   6.907  10.640   1.980
58302W        W11198  29.696  19.225   1.996
58303W        W11199  24.818   2.702   1.230
58304W        W11200  24.234  15.764   0.955
58305W        W11201  16.122   9.572   8.346
58306W        W11202  28.564  15.041   2.907
58307W        W11203   2.866  21.167   0.702
58308W        W11204  15.519  11.112   9.664
58309W        W11205  25.907  17.174  10.123
58310W        W11206   7.642  27.161   2.218
58311W        W11207  11.028  32.080   0.571
58312W        W11208   4.999   4.801   8.048
58313W        W11209  34.463   6.208   1.476
58314W        W11210  15.853  18.443   8.508
58315W        W11211  15.696  30.998   2.552
58316W        W11212   4.795  32.783   0.725
58317W        W11213  13.395  14.138   9.304
58318W        W11214  23.440  17.913   8.061
58319W        W11215  34.288  25.550   1.580
58320W        W11216  16.019  23.973   0.729
58321W        W11217   3.984   4.493   0.116
58322W        W11218  35.591  30.339   8.866
58323W        W11219   9.067  11.991   8.726
58324W        W11220   8.843  10.899   8.593
58325W        W11221  29.146   6.485   1.045
58326W        W11222  21.461   3.403  10.111
58327W        W11223   5.622  20.767   8.826
58328W        W11224  14.521  12.429   8.434
58329W        W11225   3.390   4.477   0.079
58330W        W11226  17.360  12.417   2.654
58331W        W11227   9.907  25.038   0.177
58332W        W11228   6.102   6.501   9.210
58333W        W11229  20.780  13.112   3.034
58334W        W11230  30.469  21.259   8.908
58335W        W11231  21.661  12.802   1.793
58336W        W11232  29.256  23.614   2.165
58337W        W11233  18.191  23.521   1.445
58338W        W11234  12.412  32.581   1.608
58339W        W11235   8.668   6.293   8.293
58340W        W11236  13.887  35.100   1.804
58341W        W11237   2.567  28.107   1.964
58342W        W11238  21.717  25.054   0.428
58343W        W11239  27.019  19.082   1.871
58344W        W11240  14.612  23.653  10.194
58345W        W11241  18.959  16.401   7.853
58346W        W11242  35.346  14.140   1.965
58347W        W11243  17.791  10.264   3.535
58348W        W11244  30.460   3.280   7.542
58349W        W11245   1.778  12.813   9.307
58350W        W11246  15.416  33.971   0.631
58351W        W11247   3.071  15.146   8.691
58352W        W11248  33.537   3.833   2.784
58353W        W11249   5.685  27.273   1.677
58354W        W11250   4.900  24.966   3.188
58355W        W11251  10.269  32.460   8.749
58356W        W11252   0.196  24.186   2.150
58357W        W11253  26.028  34.341   0.732
58358W        W11254   3.143  13.770   0.247
58359W        W11255  19.242   3.790   1.133
58360W        W11256   3.627  10.828   9.924
58361W        W11257  28.238  21.978   2.768
58362W        W11258  33.919  32.401   8.316
58363W        W11259  13.922  26.099   7.565
58364W        W11260  24.945   3.558   9.368
58365W        W11261   4.447   6.072   8.837
58366W        W11262  24.752  29.768   1.405
58367W        W11263  20.736  35.321   0.078
58368W        W11264   9.829   1.782   1.508
58369W        W11265   5.053  10.195   2.890
58370W        W11266   5.876   4.097   8.416
58371W        W11267   6.900  15.865  10.046
58372W        W11268  18.166  24.967   9.544
58373W        W11269  10.356  35.594  10.106
58374W        W11270  28.687  31.162   1.492
58375W        W11271   4.987   3.936   7.743
58376W        W11272  17.945  30.230   1.791
58377W        W11273  10.876   0.354   0.221
58378W        W11274  27.300  17.252   0.957
58379W        W11275  14.140  25.275   1.916
58380W        W11276  25.714  25.182   3.332
58381W        W11277  32.402  35.226   0.132
58382W        W11278  33.309   9.771   1.696
58383W        W11279  22.154  33.372   1.169
58384W        W11280  22.597   7.386   2.655
58385W        W11281  25.245   7.162   3.446
58386W        W11282   0.769  31.300   1.250
58387W        W11283   0.826  33.689   1.304
58388W        W11284  29.380  30.425   0.843
58389W        W11285  17.944  13.763   7.207
58390W        W11286  28.308  23.224   0.841
58391W        W11287   2.469  20.550   0.384
58392W        W11288  33.781  28.205   9.658
58393W        W11289   8.471  13.473  10.045
58394W        W11290  21.793   4.826   3.257
58395W        W11291   5.731  28.391   9.731
58396W        W11292  24.771  30.309   8.133
58397W        W11293  28.975  17.288   3.526
58398W        W11294  17.811  10.366   8.352
58399W        W11295  27.289   1.021   3.731
58400W        W11296  14.598   2.166   8.345
58401W        W11297  31.329  23.468   8.277
58402W        W11298  14.647  32.502   3.637
58403W        W11299  15.311   7.281  10.221
58404W        W11300  23.016  28.373   8.839
58405W        W11301  10.287  11.202   8.721
58406W        W11302  14.055  16.571   2.332
58407W        W11303  15.929  19.735   3.362
58408W        W11304   0.811   5.799   8.128
58409W        W11305  30.063   7.099   8.890
58410W        W11306   5.133  28.403   8.133
58411W        W11307   2.495  16.999   9.682
58412W        W11308  11.742  25.181  10.137
58413W        W11309  12.029   3.672   7.426
58414W        W11310  27.533  22.715   0.431
58415W        W11311   7.002  10.616   9.112
58416W        W11312  35.870  18.824   2.788
58417W        W11313  19.983  19.309   1.810
58418W        W11314  15.277   7.673   0.990
58419W        W11315   5.194  26.764   8.663
58420W        W11316   2.494   3.178   8.927
58421W        W11317  10.693  20.294  10.143
58422W        W11318  24.797  20.897   2.092
58423W        W11319  20.528  34.965   0.477
58424W        W11320  34.304  27.171   2.050
58425W        W11321  32.827  24.755  10.233
58426W        W11322  11.400  14.326   3.272
58427W        W11323  34.808  21.236   8.751
58428W        W11324   5.374  28.543   2.218
58429W        W11325  30.126  15.042   9.769
58430W        W11326   8.539  10.296   9.024
58431W        W11327  20.199   9.900   0.841
58432W        W11328  26.077   5.179   2.634
58433W        W11329  23.424  14.787   0.703
58434W        W11330  22.093  29.278  10.252
58435W        W11331  34.623  11.453   8.063
58436W        W11332   8.992  18.572   1.825
58437W        W11333  33.461  14.510   8.492
58438W        W11334   6.871  16.061   8.623
58439W        W11335   7.180  10.831   2.352
58440W        W11336  13.326   0.037   2.581
58441W        W11337   3.507  30.661   9.104
58442W        W11338  26.708  35.471   7.398
58443W        W11339  15.464  17.199   0.301
58444W        W11340  27.913  26.187   1.981
58445W        W11341  29.996  31.915   0.614
58446W        W11342  20.287  34.452   7.666
58447W        W11343  35.787  20.879   2.742
58448W        W11344  25.111  24.153   7.721
58449W        W11345   5.800  12.153   7.458
58450W        W11346   2.667  10.250   2.464
58451W        W11347  20.776  34.369   0.909
58452W        W11348  30.987  19.038   2.624
58453W        W11349   5.444  10.696   1.172
58454W        W11350  13.960  14.268   1.412
58455W        W11351   5.767  29.683   9.227
58456W        W11352  22.579  17.992   0.132
58457W        W11353  11.814  30.464   8.445
58458W        W11354  16.087  13.384   8.438
58459W        W11355  20.980   0.197  10.212
58460W        W11356  14.826  35.705   1.152
58461W        W11357   7.494  16.785   2.175
58462W        W11358  19.816  13.078  10.295
58463W        W11359  18.062  17.687   2.204
58464W        W11360  30.042  10.005   9.843
58465W        W11361  31.913  35.008  10.089
58466W        W11362   6.366   7.627   9.883
58467W        W11363   3.257  17.072   9.936
58468W        W11364  31.479   3.070   7.868
58469W        W11365   6.617  30.997   9.634
58470W        W11366  21.873  33.731   2.802
58471W        W11367   1.789  14.781   9.677
58472W        W11368  24.986  32.613   8.870
58473W        W11369  30.873  12.389   3.229
58474W        W11370  34.162  26.054   1.444
58475W        W11371   5.573   2.979   9.945
58476W        W11372  27.430  34.191   1.139
58477W        W11373  29.950  26.918   0.034
58478W        W11374  29.918  17.322   8.121
58479W        W11375  12.393  27.544   8.203
58480W        W11376  22.329  35.505   7.619
58481W        W11377   8.935  24.596   0.487
58482W        W11378  35.887  27.434   0.258
58483W        W11379  32.246   7.476   8.259
58484W        W11380  12.541  27.178   9.126
58485W        W11381   3.281  27.046   2.604
58486W        W11382  34.269  32.012   2.598
58487W        W11383  16.530   8.408  10.099
58488W        W11384  22.090  18.516   0.866
58489W        W11385  13.116   0.326   9.396
58490W        W11386  21.638  20.906   0.557
58491W        W11387  24.413  19.694   9.381
58492W        W11388  16.424  12.960   7.812
58493W        W11389  28.741  25.340   9.972
58494W        W11390  15.675   9.823   1.931
58495W        W11391   9.702  30.294   9.446
58496W        W11392   8.359  17.042   9.975
58497W        W11393  21.199  33.206   9.839
58498W        W11394  33.375  17.267   2.930
58499W        W11395  28.776  14.222   3.134
58500W        W11396  18.851  16.334   9.989
58501W        W11397  34.938  24.434   1.978
58502W        W11398  12.452  23.387   1.174
58503W        W11399  31.150  33.451   9.462
58504W        W11400  31.676  31.559   2.334
58505W        W11401   3.750  33.591   0.423
58506W        W11402   3.571  28.719   7.662
58507W        W11403  20.828   1.580   9.901
58508W        W11404  23.650   9.007   9.952
58509W        W11405   6.779  26.518   0.825
58510W        W11406  33.317   8.891   3.267
58511W        W11407  16.482   5.146   1.454
58512W        W11408   9.108   4.529   0.672
58513W        W11409  17.004   4.231   1.350
58514W        W11410  22.108  11.840   0.252
58515W        W11411  14.343   4.848   0.096
58516W        W11412  22.457  16.506   7.723
58517W        W11413  10.450   6.116   7.773
58518W        W11414  21.957  12.167   2.994
58519W        W11415  10.862  28.187   1.420
58520W        W11416  23.386  27.282   9.546
58521W        W11417  27.845  35.502   8.935
58522W        W11418  27.475  11.133   1.726
58523W        W11419   1.633  10.775   2.190
58524W        W11420  13.359   3.422   9.494
58525W        W11421   5.748  32.172   1.450
58526W        W11422  21.416  15.940   9.642
58527W        W11423  35.845  10.009   0.392
58528W        W11424  15.240   7.473   1.957
58529W        W11425   1.960  19.650   1.079
58530W        W11426  20.704  19.107   1.417
58531W        W11427   8.478  25.706   9.062
58532W        W11428   2.697  20.439   2.802
58533W        W11429  30.791   6.475   2.044
58534W        W11430  16.306  16.158   1.751
58535W        W11431  14.043   3.403   2.694
58536W        W11432  17.941  17.357   9.632
58537W        W11433  28.747  16.700   9.466
58538W        W11434  33.004  14.043   7.375
58539W        W11435  20.661   0.806   7.821
58540W        W11436   5.931  21.215   9.641
58541W        W11437   0.573  28.511   1.457
58542W        W11438   0.418  12.066   9.904
58543W        W11439  14.134  22.648   2.332
58544W        W11440  11.591  24.731   9.888
58545W        W11441   9.895  30.799   0.140
58546W        W11442   8.047   5.756   8.893
58547W        W11443   4.969  29.196   0.080
58548W        W11444  27.895  21.712  10.050
58549W        W11445  33.485  13.194   9.490
58550W        W11446  21.993  17.772   9.601
58551W        W11447  25.898  34.976   9.380
58552W        W11448  22.233   1.504   2.469
58553W        W11449  22.159  28.831   7.750
58554W        W11450  30.321  14.914   0.926
58555W        W11451  25.148  25.381  10.024
58556W        W11452  22.956  32.088   2.762
58557W        W11453   4.848  14.554   3.460
58558W        W11454  13.115  22.684   1.652
58559W        W11455  26.011  11.294   1.177
58560W        W11456   3.197  15.731   8.536
58561W        W11457  33.967   1.219   0.437
58562W        W11458   4.629  21.391   1.493
58563W        W11459   6.184  32.915   8.956
58564W        W11460  15.373  15.035   3.391
58565W        W11461  33.513   0.595   2.581
58566W        W11462  10.119  24.812   7.593
58567W        W11463  22.052  10.539   9.036
58568W        W11464   8.187   2.990   7.659
58569W        W11465  28.817  27.134   1.449
58570W        W11466  15.940  21.429   0.085
58571W        W11467  10.852  21.693  10.278
58572W        W11468  34.604  27.794   9.291
58573W        W11469  13.932  31.367   8.471
58574W        W11470  21.799   4.144   7.729
58575W        W11471  10.334   2.708   8.865
58576W        W11472   4.708   7.006   7.046
58577W        W11473  18.362  12.833   0.477
58578W        W11474  16.024   7.811   8.981
58579W        W11475  15.036  33.559   1.764
58580W        W11476  22.182   5.812   2.505
58581W        W11477   4.292   0.498   1.360
58582W        W11478  17.840  10.878   3.433
58583W        W11479  32.328   0.756   0.746
58584W        W11480  24.665  11.137   7.962
58585W        W11481   0.587  17.908   3.432
58586W        W11482  21.914  23.086   8.670
58587W        W11483  23.668  13.554   8.540
58588W        W11484  20.452  28.629   8.678
58589W        W11485  10.318   3.942   2.109
58590W        W11486  34.227  20.491   0.150
58591W        W11487   0.118  21.336   3.406
58592W        W11488  16.367  19.689   9.689
58593W        W11489   6.401  31.021   2.911
58594W        W11490  12.916  27.486  10.173
58595W        W11491  23.788  28.188   8.518
58596W        W11492   1.859   0.375   9.681
58597W        W11493  25.653  16.607   7.337
58598W        W11494  11.249  28.009   7.134
58599W        W11495  30.694  26.171   1.940
58600W        W11496   6.429   5.198   9.459
58601W        W11497  14.866  17.519   2.889
58602W        W11498  35.237   8.229   2.985
58603W        W11499  25.686   0.667   0.095
58604W        W11500  32.985  35.365   7.553
58605W        W11501  29.666   9.329   9.272
58606W        W11502  20.474   3.386   1.766
58607W        W11503   2.061  31.544   0.995
58608W        W11504  17.796   9.263   3.732
58609W        W11505  26.727  16.392   2.454
58610W        W11506  18.377  24.152   3.642
58611W        W11507  10.215  18.525   8.138
58612W        W11508   8.405  24.923   9.634
58613W        W11509  21.373  13.957   8.439
58614W        W11510  18.768  35.586   9.560
58615W        W11511  34.397  21.363   8.342
58616W        W11512  33.516  13.406   1.796
58617W        W11513  27.367   7.348  10.037
58618W        W11514  24.752  25.245  10.305
58619W        W11515  28.384  16.050   0.843
58620W        W11516  25.781  35.655   3.238
58621W        W11517   5.842   9.876  10.188
58622W        W11518   3.185  34.548   1.525
58623W        W11519  33.571  28.457   9.026
58624W        W11520  24.416  26.057   7.228
58625W        W11521   3.859  33.819   8.350
58626W        W11522  25.656  12.178   3.428
58627W        W11523  13.597  16.272   8.109
58628W        W11524  13.323  10.668   9.619
58629W        W11525  26.010   5.210   0.032
58630W        W11526   2.036  18.366   8.459
58631W        W11527  30.447  34.639   7.455
58632W        W11528  23.024   9.772   3.022
58633W        W11529  24.302  31.332   7.221
58634W        W11530  18.711  21.434   2.128
58635W        W11531  20.587  15.326   8.189
58636W        W11532   0.009  35.821   3.534
58637W        W11533  32.235  15.140   8.491
58638W        W11534   9.372  31.270   1.744
58639W        W11535  15.164  29.694   8.471
58640W        W11536   2.737  20.614   1.916
58641W        W11537  26.830  32.734   8.752
58642W        W11538  26.178  33.461  10.271
58643W        W11539  19.784   3.215   8.483
58644W        W11540  32.163  13.644   0.603
58645W        W11541  33.224   6.891   7.950
58646W        W11542  15.248  11.414   2.875
58647W        W11543  18.240   2.733   2.808
58648W        W11544  20.725  29.085   1.677
58649W        W11545  19.336  36.011   2.271
58650W        W11546  15.168  20.480   7.336
58651W        W11547   2.183  14.298   3.572
58652W        W11548  23.566  25.795   1.092
58653W        W11549  29.962   4.182   9.057
58654W        W11550  18.042  30.891   7.941
58655W        W11551  14.695  35.490   0.753
58656W        W11552  24.826  30.790   9.424
58657W        W11553   3.550  18.383   7.066
58658W        W11554   6.742  31.943   8.279
58659W        W11555   1.046  27.803   1.723
58660W        W11556  20.331  15.071   0.206
58661W        W11557  10.556  27.616   9.201
58662W        W11558  16.582   6.918  10.188
58663W        W11559   9.468  27.851   1.744
58664W        W11560  12.516   8.243  10.004
58665W        W11561   4.723  32.806  10.241
58666W        W11562  22.840   7.205   8.382
58667W        W11563   0.898  33.620   2.341
58668W        W11564   4.634   6.843   2.431
58669W        W11565  13.722  18.595   2.908
58670W        W11566  20.378  20.369  10.112
58671W        W11567  11.178   5.352   1.710
58672W        W11568  27.428   6.543   2.314
58673W        W11569  22.397  10.280  10.051
58674W        W11570  31.277  32.272   2.684
58675W        W11571  33.570  31.809   3.905
58676W        W11572   4.298  22.725   7.694
58677W        W11573   8.604  17.169   0.675
58678W        W11574  31.561  12.892   1.245
58679W        W11575   3.511  14.864   2.581
58680W        W11576  31.296  12.777   9.636
58681W        W11577  21.499  31.310   0.940
58682W        W11578  35.318  22.688   8.553
58683W        W11579  20.211   1.120   9.361
58684W        W11580  15.759  29.863   8.442
58685W        W11581  14.081  11.772   0.346
58686W        W11582  27.926   7.936   2.741
58687W        W11583   6.686  23.191   8.811
58688W        W11584  11.880   9.831   2.477
58689W        W11585  33.457  27.163   9.854
58690W        W11586  14.992   3.578   9.573
58691W        W11587   8.854  11.414   8.670
58692W        W11588  32.820  16.648   9.798
58693W        W11589  12.873  28.813   0.412
58694W        W11590   5.113  33.498   1.066
58695W        W11591  16.625   7.714   9.790
58696W        W11592  29.476  22.104  10.125
58697W        W11593   5.436  31.677   3.406
58698W        W11594  13.599  13.121   9.179
58699W        W11595  34.713  14.493   8.706
58700W        W11596  25.609  11.821   8.489
58701W        W11597  32.034  35.605   9.530
58702W        W11598  26.774  12.811   7.665
58703W        W11599   8.946  13.112   8.645
58704W        W11600  32.243  23.119   9.329
58705W        W11601  24.588  17.118   0.758
58706W        W11602  30.444   3.918  10.144
58707W        W11603  26.657  25.599   1.845
58708W        W11604  21.225   6.496   1.017
58709W        W11605  19.956   9.722   7.858
58710W        W11606   5.880  23.546   9.295
58711W        W11607   7.833  22.349   8.019
58712W        W11608  31.541   0.489   7.866
58713W        W11609  13.484   9.167   1.048
58714W        W11610  25.157  29.408   8.376
58715W        W11611   0.199   8.248   0.865
58716W        W11612  10.744   0.308   8.005
58717W        W11613   8.683  29.199   0.932
58718W        W11614  26.324  27.498   6.840
58719W        W11615   4.909  21.360   0.659
58720W        W11616  19.350  35.951   3.020
58721W        W11617  15.409  24.478   0.088
58722W        W11618  28.408   9.649  10.223
58723W        W11619   8.278  31.148   3.711
58724W        W11620  20.416   5.574   2.475
58725W        W11621  16.029  32.439   8.315
58726W        W11622  20.958  23.377   1.670
58727W        W11623   7.612  16.738   0.601
58728W        W11624   6.914   5.121   8.572
58729W        W11625  16.118  14.425   9.561
58730W        W11626  35.838  13.079   1.178
58731W        W11627   0.415  17.273   9.957
58732W        W11628  30.155  12.833   0.564
58733W        W11629   0.035   0.786   9.832
58734W        W11630   1.383  31.948   1.216
58735W        W11631  11.162  13.821   8.212
58736W        W11632  15.591  27.112   2.195
58737W        W11633  19.117  26.545   2.807
58738W        W11634   8.672   6.436   2.205
58739W        W11635  30.699  14.112   9.770
58740W        W11636  34.651   6.209   0.962
58741W        W11637  31.215  11.372   9.828
58742W        W11638  22.022  23.800   0.523
58743W        W11639   0.835  21.070   2.206
58744W        W11640   0.150  31.394   7.508
58745W        W11641   2.451  19.035   9.360
58746W        W11642   7.013   0.391   0.386
58747W        W11643  24.190   2.975   9.258
58748W        W11644  32.490  15.890   2.097
58749W        W11645  14.007  21.158   1.247
58750W        W11646   3.212  15.976   8.997
58751W        W11647  34.668   6.628   2.276
58752W        W11648  27.741  16.718   0.078
58753W        W11649  19.919  21.058   2.932
58754W        W11650   0.424  27.171   1.617
58755W        W11651  32.061  32.208  10.254
58756W        W11652  17.639  28.645   9.694
58757W        W11653  13.404   9.970   7.062
58758W        W11654  35.152  31.106   3.507
58759W        W11655  18.835  21.168   8.718
58760W        W11656  16.768  34.541   7.507
58761W        W11657  25.454  22.032   1.206
58762W        W11658  19.806   5.577   1.887
58763W        W11659  10.743  12.786   8.848
58764W        W11660  35.247  31.560   9.935
58765W        W11661   3.811  31.533   9.448
58766W        W11662   5.463   5.356   0.826
58767W        W11663   6.927   6.468   1.489
58768W        W11664  18.013  11.838   7.117
58769W        W11665  28.345  32.674   2.350
58770W        W11666  33.562   7.903   9.728
58771W        W11667  10.895  34.188   0.564
58772W        W11668   3.565  11.987   8.279
58773W        W11669  25.015  21.457   0.809
58774W        W11670  20.796  26.611   2.595
58775W        W11671   2.767   2.577   2.652
58776W        W11672  25.999   7.303   7.596
58777W        W11673  32.073  15.791   8.134
58778W        W11674   5.681   3.024   9.033
58779W        W11675  33.062  20.011   0.843
58780W        W11676  25.055  13.929   8.855
58781W        W11677  29.374  31.712   8.716
58782W        W11678  23.830  20.383   8.581
58783W        W11679   2.895  21.159  10.003
58784W        W11680   2.175  32.832   0.407
58785W        W11681  12.140  23.757   9.681
58786W        W11682   8.337   5.746   0.740
58787W        W11683  20.660   7.557   1.313
58788W        W11684  31.112   3.672   1.478
58789W        W11685  35.497  13.192   2.546
58790W        W11686  26.171  30.710   9.590
58791W        W11687   0.645   8.375  10.240
58792W        W11688  27.371  34.595   3.729
58793W        W11689  17.369   6.021   9.442
58794W        W11690   8.720   7.229   3.139
58795W        W11691  19.489  20.388   0.206
58796W        W11692  29.139   1.027   9.566
58797W        W11693  22.381  21.315   1.193
58798W        W11694  22.805  11.945   7.921
58799W        W11695   9.949  27.733   8.607
58800W        W11696  29.945  18.143   2.216
58801W        W11697   9.710   2.844   2.467
58802W        W11698  22.435   3.638   1.140
58803W        W11699  30.071  18.394   2.851
58804W        W11700  23.171  28.109   9.288
58805W        W11701   0.336  11.509   1.155
58806W        W11702  13.240  31.650   1.651
58807W        W11703  13.777  27.060   7.403
58808W        W11704  24.670  33.843   0.373
58809W        W11705  24.778  20.922   9.897
58810W        W11706  20.680  31.225   9.755
58811W        W11707  34.037  11.262   8.905
58812W        W11708  18.881  17.610   9.489
58813W        W11709   1.148  17.087   9.858
58814W        W11710   4.656   1.809   1.965
58815W        W11711   8.493  17.112   2.905
58816W        W11712  10.269  35.595   1.720
58817W        W11713  25.983  32.841   2.225
58818W        W11714  24.095   8.531   8.561
58819W        W11715   1.859  20.709   3.364
58820W        W11716  14.887   0.408   0.860
58821W        W11717   5.194  22.910   2.612
58822W        W11718  15.125  18.489   9.168
58823W        W11719  26.335  30.481   1.180
58824W        W11720   0.860   4.764   9.727
58825W        W11721   8.630   4.301   0.536
58826W        W11722   7.152   2.647   1.547
58827W        W11723  15.571  16.864   8.298
58828W        W11724   3.609  15.488   0.905
58829W        W11725  15.908  29.211   9.887
58830W        W11726   5.538  12.904   8.769
58831W        W11727   1.073   8.689  10.217
58832W        W11728  10.797   5.477   9.406
58833W        W11729  11.566  16.256   8.258
58834W        W11730  14.137   8.698   0.639
58835W        W11731  34.381   9.491  10.001
58836W        W11732  22.613   5.282   1.744
58837W        W11733  24.249  32.641   3.093
58838W        W11734  15.417  14.508   3.179
58839W        W11735  27.500  20.511  10.209
58840W        W11736  23.337  24.047   1.054
58841W        W11737  16.969  35.978   2.477
58842W        W11738  34.225  34.113   1.585
58843W        W11739  32.199  29.952   1.981
58844W        W11740  16.450  23.714   0.440
58845W        W11741  10.259   8.916   6.956
58846W        W11742   8.833  30.364   7.605
58847W        W11743  25.891  11.762   0.824
58848W        W11744  32.081  28.185   8.131
58849W        W11745   9.127   9.218   9.090
58850W        W11746  18.500   4.168   7.545
58851W        W11747  15.298  29.561   3.254
58852W        W11748   9.881  31.425   9.054
58853W        W11749   7.749  24.144   9.421
58854W        W11750   6.906  34.249   7.190
58855W        W11751   6.240   2.138   8.419
58856W        W11752   9.220   2.658   9.792
58857W        W11753  23.257  15.183   2.576
58858W        W11754  13.528  26.158   8.916
58859W        W11755  12.479  30.030  10.212
58860W        W11756   2.417   5.605   9.703
58861W        W11757  13.258  20.634   2.249
58862W        W11758  24.858  11.170   8.469
58863W        W11759  20.800  25.850   8.285
58864W        W11760  10.495  11.450  10.075
58865W        W11761  27.513  30.656   2.841
58866W        W11762  34.916  31.639   3.587
58867W        W11763   3.909   1.346   2.200
58868W        W11764  25.163   0.832   2.505
58869W        W11765  28.346  21.635   9.730
58870W        W11766   7.754   7.740  10.150
58871W        W11767  17.575   9.858   1.313
58872W        W11768  29.719  19.485   0.965
58873W        W11769  13.173  35.015   2.069
58874W        W11770   8.761  31.914   2.569
58875W        W11771  10.214   4.480   8.813
58876W        W11772  12.352  17.533   2.110
58877W        W11773  10.330  30.097   9.749
58878W        W11774   1.950   5.308   8.573
58879W        W11775  34.292  25.689   2.095
58880W        W11776  34.977  15.305   0.477
58881W        W11777   6.267  22.332   9.873
58882W        W11778  34.295  34.632   8.162
58883W        W11779  10.610  26.418   9.913
58884W        W11780  28.793  26.719   7.560
58885W        W11781   3.372  22.231   2.879
58886W        W11782  26.929   9.877  10.120
58887W        W11783  34.094   4.438   1.634
58888W        W11784  19.489  21.213   0.488
58889W        W11785  18.094   4.810   2.476
58890W        W11786  24.077  20.316   9.876
58891W        W11787   0.264   6.833   9.183
58892W        W11788  18.313  18.385   8.853
58893W        W11789  30.210   5.083   0.156
58894W        W11790  10.967   7.887   8.555
58895W        W11791  34.519   1.733   9.615
58896W        W11792  30.425  21.259   9.810
58897W        W11793   4.964  13.093   0.119
58898W        W11794  30.749   3.219   9.166
58899W        W11795  21.116  24.666   1.181
58900W        W11796  22.503   1.789   9.293
58901W        W11797  22.033  21.271  10.143
58902W        W11798  27.846   1.268   1.975
58903W        W11799   4.194  16.781   1.497
58904W        W11800  24.637   3.173   1.352
58905W        W11801  15.995  33.779   3.158
58906W        W11802  18.482  31.425   8.908
58907W        W11803   7.859  13.283   2.033
58908W        W11804  32.624   3.676   1.224
58909W        W11805  35.315  29.765   7.450
58910W        W11806  21.433   3.776   0.161
58911W        W11807   6.472  30.561   2.329
58912W        W11808  11.971  32.000   0.765
58913W        W11809   8.950  16.565   8.801
58914W        W11810  34.803  22.867   0.487
58915W        W11811   5.561  25.639   0.789
58916W        W11812  11.651  30.107   9.655
58917W        W11813  23.683   8.745   2.435
58918W        W11814  32.962  32.763   1.899
58919W        W11815  18.044   7.520   9.182
58920W        W11816   5.027  17.805   2.682
58921W        W11817  20.149  31.974   1.334
58922W        W11818  28.871  16.708   8.406
58923W        W11819  12.570  23.345   8.312
58924W        W11820  21.159  28.136   9.045
58925W        W11821  19.252   4.137   7.718
58926W        W11822   3.053  28.086   8.238
58927W        W11823  17.615  10.373   2.304
58928W        W11824  10.461  10.994   7.727
58929W        W11825  30.613  14.433   7.602
58930W        W11826  18.108   1.812  10.264
58931W        W11827  16.583  15.183   8.664
58932W        W11828  11.972  13.527   9.151
58933W        W11829  10.977  12.353   1.209
58934W        W11830  24.108  22.134   1.833
58935W        W11831  16.202  30.097   2.258
58936W        W11832  18.758  12.507   1.742
58937W        W11833   1.301  24.983   2.649
58938W        W11834  19.337  22.398   3.395
58939W        W11835  14.984  33.635   0.770
58940W        W11836  34.172  24.107   0.493
58941W        W11837   7.505  29.429   8.742
58942W        W11838   1.919   9.228   2.895
58943W        W11839  26.914  16.071   1.952
58944W        W11840  19.047   8.264   9.167
58945W        W11841   1.678  30.986   8.442
58946W        W11842  17.668  34.561   1.922
58947W        W11843  31.837   6.358   2.838
58948W        W11844   8.272  20.224   1.241
58949W        W11845   8.885  29.746   8.094
58950W        W11846  30.503  15.342   9.691
58951W        W11847  30.395   0.587   1.508
58952W        W11848   6.637  14.897   2.390
58953W        W11849   7.543   4.676   3.570
58954W        W11850   8.429  35.470   9.394
58955W        W11851  23.614  20.974   9.184
58956W        W11852  22.230  22.954   0.067
58957W        W11853  23.050  13.236   9.980
58958W        W11854   5.326  14.592   3.891
58959W        W11855   9.390  22.441   8.308
58960W        W11856   3.282  16.588  10.269
58961W        W11857  13.893  21.053   7.836
58962W        W11858   1.958   2.086   1.067
58963W        W11859  16.064  22.099   9.091
58964W        W11860  29.037  27.306   2.560
58965W        W11861  19.925  16.640   0.962
58966W        W11862  31.701  17.437   9.731
58967W        W11863  12.961   3.451   1.955
58968W        W11864   0.781  32.570   0.573
58969W        W11865  34.537  23.593   1.965
58970W        W11866   2.678  35.620  10.125
58971W        W11867   4.342  33.896   8.555
58972W        W11868  12.469  18.716   0.345
58973W        W11869  34.190   7.299   0.241
58974W        W11870  10.182   8.573   9.946
58975W        W11871  16.085  10.454   0.230
58976W        W11872  14.675   9.150   8.691
58977W        W11873   1.491   1.839   8.454
58978W        W11874   2.498  13.123   9.895
58979W        W11875  18.396  33.949   7.690
58980W        W11876  26.012  17.839   2.170
58981W        W11877   2.992  20.538   3.564
58982W        W11878  25.114  16.570   9.842
58983W        W11879  14.364   2.835   1.841
58984W        W11880  28.351  27.576  10.180
58985W        W11881   7.534   6.652   1.491
58986W        W11882  18.947  35.774  10.324
58987W        W11883   6.889   9.065   9.697
58988W        W11884  31.277  11.794   1.848
58989W        W11885   5.319  11.043   7.676
58990W        W11886  31.117   6.449   8.253
58991W        W11887  14.648  19.684   9.414
58992W        W11888  24.462   5.625   2.776
58993W        W11889  26.263  32.593   7.579
58994W        W11890   1.150   2.617   2.512
58995W        W11891  18.499   6.250   1.715
58996W        W11892   8.912  16.439   3.217
58997W        W11893  11.942  30.013   9.158
58998W        W11894  28.814  28.084   2.920
58999W        W11895   0.970  23.499   9.642
59000W        W11896  14.962   8.471   0.157
59001W        W11897  15.734   7.273   9.291
59002W        W11898   4.085  31.387   3.580
59003W        W11899  23.583  30.054   0.076
59004W        W11900  35.226  10.361   1.597
59005W        W11901  34.755  28.877   1.923
59006W        W11902   9.180   0.530   1.118
59007W        W11903   4.884   2.712   9.331
59008W        W11904  30.947  20.185   9.647
59009W        W11905  24.711   2.172   0.256
59010W        W11906   1.990  26.591   9.515
59011W        W11907   5.665   7.024   3.629
59012W        W11908  14.918  13.924   8.182
59013W        W11909   3.818  21.042   3.457
59014W        W11910  18.185  16.823   1.020
59015W        W11911   3.531  25.553   3.183
59016W        W11912  24.659   4.430   9.874
59017W        W11913  22.352  20.873  10.290
59018W        W11914   9.033   4.028   2.653
59019W        W11915  31.646  33.355   1.914
59020W        W11916   8.826  23.091   1.687
59021W        W11917  12.720  24.589   0.406
59022W        W11918  28.062  33.181   7.634
59023W        W11919  28.498  15.725   9.854
59024W        W11920  12.276  26.319   8.268
59025W        W11921  17.056   1.248   9.952
59026W        W11922  16.260  17.828  10.321
59027W        W11923  20.115  32.361   8.553
59028W        W11924  24.596   2.422   8.067
59029W        W11925  17.538   7.598   9.286
59030W        W11926  21.668  29.168   0.577
59031W        W11927  35.169  25.753   3.286
59032W        W11928   3.460  19.708   7.999
59033W        W11929  12.556  34.601   9.197
59034W        W11930   5.543  15.141   8.167
59035W        W11931  34.646  33.462   2.033
59036W        W11932  33.748  12.229   0.507
59037W        W11933  34.885  33.839   2.803
59038W        W11934  34.198  27.109   9.843
59039W        W11935  10.919  23.007   3.015
59040W        W11936   6.108  12.346   7.794
59041W        W11937  12.720  26.700   1.677
59042W        W11938   9.250  31.660   9.679
59043W        W11939  24.538  27.652   0.977
59044W        W11940  24.022  34.321   7.936
59045W        W11941   4.066   0.580   3.043
59046W        W11942   5.935  31.795   1.131
59047W        W11943  15.463  21.355   1.718
59048W        W11944  17.568  24.051   1.653
59049W        W11945  12.331  12.171   0.284
59050W        W11946  34.761  23.240   0.156
59051W        W11947   2.029  15.688   2.785
59052W        W11948  27.746  26.623   8.770
59053W        W11949   9.302   9.092   7.642
59054W        W11950   7.093  16.244   9.080
59055W        W11951  21.623  16.488   2.481
59056W        W11952  11.355  30.102   1.116
59057W        W11953  29.798  22.902   6.870
59058W        W11954   9.467   3.382   2.566
59059W        W11955  16.204  26.988   9.807
59060W        W11956  21.884  23.402   1.250
59061W        W11957  12.631  19.684   0.146
59062W        W11958  20.911   8.426   0.174
59063W        W11959   6.557   7.062   3.231
59064W        W11960   8.827  28.105  10.056
59065W        W11961  13.831   3.958   0.142
59066W        W11962  33.583   0.542   2.030
59067W        W11963  17.380  23.207   1.240
59068W        W11964   7.630   8.709   6.830
59069W        W11965   0.386  33.601  10.070
59070W        W11966  14.213  29.169   8.357
59071W        W11967   6.986   5.225   2.160
59072W        W11968  19.689  12.310   2.934
59073W        W11969  24.938  10.017   9.618
59074W        W11970   5.537  32.744   0.718
59075W        W11971  26.201  10.289   1.087
59076W        W11972   5.992  15.364   3.224
59077W        W11973   6.324  12.787   1.576
59078W        W11974   3.639   7.603   9.032
59079W        W11975  15.876   0.182   8.080
59080W        W11976   2.746  22.325   8.506
59081W        W11977  23.674  24.860   8.613
59082W        W11978  17.923  13.019   2.823
59083W        W11979  29.157  13.110   7.389
59084W        W11980  29.056   4.761   0.758
59085W        W11981  14.141   4.797   2.848
59086W        W11982  33.776   3.388   8.532
59087W        W11983   1.365  24.527   9.313
59088W        W11984  13.757  12.031   8.841
59089W        W11985   2.960  21.953   9.750
59090W        W11986  17.686  19.536   1.615
59091W        W11987  16.949  27.842   7.418
59092W        W11988   3.141  14.854   0.412
59093W        W11989  34.930   2.627   8.094
59094W        W11990   4.534   6.268   2.669
59095W        W11991  19.450  30.796   2.536
59096W        W11992  18.328  17.471   3.297
59097W        W11993   3.642   3.138   8.132
59098W        W11994   8.315  25.073   0.061
59099W        W11995  15.318   2.797   8.505
59100W        W11996  17.929  15.603   3.801
59101W        W11997  12.980   0.428   1.604
59102W        W11998   4.339   3.710   2.346
59103W        W11999   2.289  16.018   0.798
59104W        W12000  16.944   8.657   9.845
59105W        W12001   6.458   5.252   8.440
59106W        W12002  23.541  21.135   7.957
59107W        W12003  18.028  10.718   1.261
59108W        W12004  18.930  14.302   3.007
59109W        W12005  24.189  31.378   8.288
59110W        W12006  11.982  31.057   1.005
59111W        W12007  17.494  11.939   9.928
59112W        W12008  24.446  25.212   1.715
59113W        W12009  31.299   3.980  10.009
59114W        W12010  12.821   7.855  10.067
59115W        W12011   8.075   3.067   8.918
59116W        W12012  31.077  15.582   3.618
59117W        W12013   9.789  18.448   0.379
59118W        W12014  26.053  33.466   9.413
59119W        W12015  18.449   6.812   0.092
59120W        W12016  33.484   2.380   1.598
59121W        W12017   4.837  11.631   8.166
59122W        W12018  11.503   2.727   8.882
59123W        W12019  21.853  30.156   2.530
59124W        W12020  25.197  29.909   9.761
59125W        W12021  14.663  17.467  10.281
59126W        W12022  11.961  11.129   9.901
59127W        W12023  27.497  18.117   0.233
59128W        W12024   6.453  14.167   9.919
59129W        W12025  25.466  26.494   0.433
59130W        W12026  18.809  24.905   0.313
59131W        W12027  13.548  28.094   8.782
59132W        W12028   8.676  27.616   8.441
59133W        W12029  25.344   6.271   2.798
59134W        W12030  31.062  27.741   9.687
59135W        W12031  11.372  10.178   1.589
59136W        W12032  12.148  25.606   0.050
59137W        W12033   2.274  13.345   1.102
59138W        W12034   0.883  14.104   2.716
59139W        W12035  11.993  17.773   1.516
59140W        W12036  32.574  33.706   8.133
59141W        W12037   7.114  19.308   1.556
59142W        W12038   4.905  28.871   8.973
59143W        W12039  18.419   5.148   0.848
59144W        W12040   3.137   7.949   8.040
59145W        W12041  10.400  20.174   7.353
59146W        W12042  15.049   8.511   3.982
59147W        W12043  29.845   1.136   7.479
59148W        W12044  33.650  13.483   1.277
59149W        W12045  24.359   2.431   1.231
59150W        W12046   1.719  26.113   9.601
59151W        W12047  12.821  18.320   8.093
59152W        W12048  25.804  30.171   0.981
59153W        W12049  14.994   1.764   1.648
59154W        W12050   8.835   7.119   9.553
59155W        W12051  13.784  25.202   8.196
59156W        W12052   1.085  13.936   8.644
59157W        W12053  24.051  20.520   1.309
59158W        W12054  33.443   0.889   7.998
59159W        W12055   3.483  33.700   0.917
59160W        W12056  14.999  29.749  10.012
59161W        W12057   3.741   6.832   1.290
59162W        W12058  21.477   8.333   9.167
59163W        W12059  35.032  35.512   9.307
59164W        W12060  35.005  17.014   3.399
59165W        W12061  22.939   1.801   8.872
59166W        W12062  21.075  13.374   1.066
59167W        W12063   6.410  28.882   0.453
59168W        W12064  13.665  19.194  10.144
59169W        W12065   2.801  22.612   0.033
59170W        W12066  20.141  23.040   1.271
59171W        W12067  18.148  25.779   7.281
59172W        W12068   5.111  10.592   0.222
59173W        W12069  23.480  28.399   8.226
59174W        W12070  12.499  12.298   8.734
59175W        W12071  23.847   9.385   3.270
59176W        W12072  23.890   3.489   0.267
59177W        W12073  10.930   3.804   7.953
59178W        W12074   2.989  32.342   1.064
59179W        W12075  10.955  17.731   1.237
59180W        W12076   0.371   0.442   8.022
59181W        W12077  16.253  30.261  10.037
59182W        W12078  18.122  25.029   2.585
59183W        W12079  34.474  23.599   7.823
59184W        W12080  10.187   3.675   1.142
59185W        W12081  27.060  25.763   8.881
59186W        W12082  27.336  20.619   8.584
59187W        W12083  26.564  35.701   7.813
59188W        W12084  35.045   5.696   2.032
59189W        W12085  17.890  25.618   1.088
59190W        W12086  13.446   9.741  10.078
59191W        W12087   0.930   0.970   0.205
59192W        W12088  31.655  19.803   8.112
59193W        W12089   2.535  25.201   3.131
59194W        W12090  29.042  30.767   9.001
59195W        W12091  14.053  35.149   0.802
59196W        W12092   0.963  27.755  10.244
59197W        W12093  16.978   7.554   0.213
59198W        W12094  18.001   9.101   1.199
59199W        W12095   7.142   0.880  10.117
59200W        W12096  29.151   4.291   8.883
59201W        W12097  13.500  16.159   8.894
59202W        W12098  12.215   5.345   9.811
59203W        W12099  21.274   7.894   0.947
59204W        W12100  20.736  26.954   0.740
59205W        W12101  11.566   3.623   9.765
59206W        W12102   1.193  32.821   8.490
59207W        W12103   7.823  28.659   3.136
59208W        W12104  27.590  14.629   1.498
59209W        W12105  17.628  22.316   1.729
59210W        W12106   5.419   4.471   8.212
59211W        W12107  11.196  15.624   0.612
59212W        W12108  13.063  31.007   0.960
59213W        W12109  11.380  17.653   1.621
59214W        W12110   2.887  30.969  10.305
59215W        W12111  22.194  35.393   3.402
59216W        W12112  26.293   0.254   0.611
59217W        W12113  32.882  30.426   9.679
59218W        W12114  22.136   7.205   2.883
59219W        W12115  18.503  27.287   8.021
59220W        W12116  33.921  27.222   1.308
59221W        W12117  31.262   9.455   2.391
59222W        W12118  22.846  12.361   1.639
59223W        W12119   8.566  33.078   7.461
59224W        W12120   0.178  13.296   1.494
59225W        W12121   7.167  33.366   1.349
59226W        W12122   6.476  21.784   8.579
59227W        W12123   6.702  17.691  10.143
59228W        W12124  27.507  24.915   8.219
59229W        W12125  11.980  26.624   9.433
59230W        W12126   8.802  11.194   8.151
59231W        W12127  26.517   6.850  10.167
59232W        W12128   7.789  26.427   1.610
59233W        W12129  10.487  34.283  10.178
59234W        W12130  12.282  12.758   8.641
59235W        W12131  26.383  25.126   9.273
59236W        W12132  34.640  14.168   9.691
59237W        W12133  35.068  32.053   9.955
59238W        W12134  33.080  13.860   0.933
59239W        W12135  28.045  15.495   1.309
59240W        W12136  14.075  32.361   9.870
59241W        W12137  23.486  15.428   3.752
59242W        W12138   6.015  14.144   1.296
59243W        W12139  15.755  21.879   0.394
59244W        W12140   4.207   3.322   7.835
59245W        W12141  21.898  19.897   9.075
59246W        W12142  30.158   6.681   9.137
59247W        W12143  12.986  23.152   1.592
59248W        W12144   4.563  35.274   2.617
59249W        W12145  22.660  35.858  10.169
59250W        W12146  18.913   4.742   9.421
59251W        W12147  12.924   5.112   1.918
59252W        W12148  10.456  13.550   8.491
59253W        W12149   4.856  27.476   0.509
59254W        W12150  16.503  19.984   2.063
59255W        W12151   4.389  23.762   0.898
59256W        W12152  19.130  27.584   9.261
59257W        W12153  33.042  22.992  10.017
59258W        W12154  27.272  14.602   8.146
59259W        W12155  26.650  22.612   0.963
59260W        W12156  23.614   2.167   9.444
59261W        W12157  33.794  27.661   0.933
59262W        W12158  19.409  31.190   8.954
59263W        W12159   4.758  34.843   9.996
59264W        W12160  27.696  17.489   3.026
59265W        W12161  20.175  19.010   9.628
59266W        W12162   7.495   0.478   1.944
59267W        W12163  34.610   4.907   9.088
59268W        W12164   2.915  10.405   8.851
59269W        W12165   8.894   3.017   2.597
59270W        W12166  23.184  33.121   1.623
59271W        W12167  13.000   2.751   1.929
59272W        W12168  24.432  26.693   0.261
59273W        W12169  18.829   2.844   0.964
59274W        W12170   1.441  23.698   2.999
59275W        W12171   3.453  10.833   0.184
59276W        W12172  20.528   1.248   2.428
59277W        W12173  25.800   2.580   7.522
59278W        W12174   7.572   2.551   2.082
59279W        W12175  33.151   5.164   0.124
59280W        W12176  16.638  16.373   8.790
59281W        W12177   7.528  13.068  10.029
59282W        W12178   9.139   2.466   1.661
59283W        W12179  19.030   9.767   9.445
59284W        W12180   1.210   0.610   9.609
59285W        W12181  14.765  33.846   7.316
59286W        W12182   1.904   8.369  10.119
59287W        W12183  26.948   6.280   0.407
59288W        W12184   2.810  19.325   0.546
59289W        W12185  27.554  28.948   9.644
59290W        W12186   8.714  21.665   0.675
59291W        W12187  35.354   6.769   1.536
59292W        W12188  10.037  17.734   8.580
59293W        W12189   4.567  12.140   8.151
59294W        W12190  29.025  20.637   1.234
59295W        W12191  15.711  11.571   8.961
59296W        W12192  15.376   2.234   9.392
59297W        W12193   8.460  25.038   7.788
59298W        W12194  10.438   7.782   0.720
59299W        W12195   8.140  14.735   3.297
59300W        W12196   8.288  11.209   9.484
59301W        W12197  16.707   8.548   3.225
59302W        W12198  17.924  13.402   2.057
59303W        W12199  22.516  18.436  10.145
59304W        W12200   7.236   0.400   9.881
59305W        W12201   9.235   5.357   2.229
59306W        W12202   7.110  30.198   0.128
59307W        W12203   2.606   1.365   8.890
59308W        W12204  30.073   9.381   1.756
59309W        W12205   0.675  23.214   9.123
59310W        W12206  11.156  28.867   7.536
59311W        W12207   1.455  34.517   7.743
59312W        W12208  10.351  15.330   8.434
59313W        W12209  27.043   6.950   2.329
59314W        W12210  26.662  24.129   0.383
59315W        W12211  26.097  35.318   1.296
59316W        W12212  29.490  16.336   9.072
59317W        W12213  31.782   3.847   0.976
59318W        W12214   3.488   7.586   2.553
59319W        W12215  25.486  31.630   1.995
59320W        W12216  30.296   5.486   8.823
59321W        W12217  10.097   0.390   2.155
59322W        W12218  15.175  27.500   7.922
59323W        W12219  13.958  13.947   9.979
59324W        W12220  25.674   2.181   9.613
59325W        W12221  30.754  21.274   1.020
59326W        W12222   5.192   4.807   9.525
59327W        W12223   0.527  34.046   1.517
59328W        W12224   9.919  21.519   8.311
59329W        W12225   4.297  24.279   1.188
59330W        W12226   1.372  34.999   0.042
59331W        W12227  23.766  11.596   9.017
59332W        W12228  27.738  12.275   3.055
59333W        W12229   4.705  19.590   7.501
59334W        W12230   4.921  30.884   9.148
59335W        W12231  27.488   9.854   1.464
59336W        W12232  14.066  35.506   0.243
59337W        W12233  11.040  17.168   0.557
59338W        W12234   7.090   9.043   2.129
59339W        W12235  32.601  17.769   9.157
59340W        W12236  21.845  17.190   3.044
59341W        W12237   7.306  33.340   7.249
59342W        W12238  23.584  20.224   2.724
59343W        W12239  28.942  14.690   9.634
59344W        W12240  16.719  25.447   1.860
59345W        W12241   8.681  17.210   1.211
59346W        W12242  15.535  33.830   1.783
59347W        W12243  33.964  28.213   3.141
59348W        W12244  19.456  16.715   8.653
59349W        W12245   3.240  15.823   0.627
59350W        W12246   7.442  23.789   9.257
59351W        W12247   8.243  34.097   2.661
59352W        W12248  16.696   8.038   3.254
59353W        W12249   7.381  16.618  10.052
59354W        W12250   2.963  19.328   2.163
59355W        W12251  35.821   0.948   2.462
59356W        W12252  33.528  28.206  10.298
59357W        W12253  19.289  24.585   1.433
59358W        W12254  30.402  24.791   1.418
59359W        W12255  20.914  28.946   1.177
59360W        W12256  25.378  27.269   8.418
59361W        W12257  21.968   2.485   0.255
59362W        W12258   8.441  14.491   0.034
59363W        W12259  35.059  23.564   2.215
59364W        W12260  17.319  11.812   1.444
59365W        W12261  24.797  17.103   1.280
59366W        W12262   6.469   1.930   2.417
59367W        W12263   5.099   9.312   9.562
59368W        W12264  22.008   7.417   7.424
59369W        W12265  16.505  11.165   9.639
59370W        W12266  27.090   7.575   8.860
59371W        W12267  20.285   3.899   0.490
59372W        W12268  25.055  22.074   8.642
59373W        W12269  27.820  26.215   8.438
59374W        W12270  31.484   6.110   2.567
59375W        W12271  11.118   0.447   8.388
59376W        W12272   5.955   7.674   8.080
59377W        W12273   1.689  14.716   9.025
59378W        W12274  17.411   3.925   3.613
59379W        W12275  34.212  22.543   0.127
59380W        W12276   5.689  27.895  10.087
59381W        W12277   6.649  34.171   7.828
59382W        W12278   7.859  30.646   8.726
59383W        W12279  34.258  19.913   3.820
59384W        W12280   5.613  12.318   8.641
59385W        W12281  22.085  21.180   2.642
59386W        W12282   0.224  16.913   9.088
59387W        W12283  34.040  23.982   8.958
59388W        W12284   1.104  10.400   9.652
59389W        W12285  25.327  18.279   8.427
59390W        W12286  26.633   5.483   0.263
59391W        W12287  20.656  21.878   1.241
59392W        W12288   0.436   2.050  10.154
59393W        W12289   1.542  32.493   2.959
59394W        W12290  14.614   1.655   8.209
59395W        W12291  13.712   2.640   9.560
59396W        W12292  29.598  28.540   2.344
59397W        W12293  10.289  18.972   1.380
59398W        W12294  17.632  27.869   8.274
59399W        W12295  30.100  34.725   2.849
59400W        W12296  32.676  28.821   2.029
59401W        W12297  12.229  24.743   0.404
59402W        W12298   9.147  31.005   2.638
59403W        W12299  25.632  10.010   0.257
59404W        W12300  18.479  29.013   2.079
59405W        W12301  32.062   6.721   3.017
59406W        W12302   0.417   5.377   7.147
59407W        W12303  20.451  33.867   0.290
59408W        W12304  34.954   3.074   1.278
59409W        W12305  12.929  20.466   7.357
59410W        W12306   2.079   5.531   9.333
59411W        W12307  16.501   1.728  10.163
59412W        W12308  19.955  26.442   1.824
59413W        W12309   8.673  35.575   0.183
59414W        W12310   5.090  35.262   2.682
59415W        W12311   8.832   4.700   9.048
59416W        W12312  32.534   0.518  10.112
59417W        W12313  33.643  24.362   0.991
59418W        W12314  21.913  18.743   4.063
59419W        W12315   3.575   8.990   4.093
59420W        W12316  11.989  12.168   7.351
59421W        W12317  16.791  19.161  10.250
59422W        W12318  17.887   2.538   1.539
59423W        W12319   1.142  24.903  10.224
59424W        W12320   0.377   6.699   1.924
59425W        W12321   5.784  21.150   1.286
59426W        W12322   1.040  12.562   9.563
59427W        W12323  26.597  33.920   8.305
59428W        W12324  26.700  27.967   0.718
59429W        W12325  27.791  33.256   2.946
59430W        W12326  24.946   2.085  10.214
59431W        W12327  33.989  10.817   8.270
59432W        W12328  11.356  16.207   2.948
59433W        W12329  34.460  11.900   9.826
59434W        W12330  23.228  13.470   8.275
59435W        W12331  31.644  31.213   0.974
59436W        W12332  25.627  33.788   0.337
59437W        W12333  19.550  12.279   8.764
59438W        W12334  12.930  14.111   7.395
59439W        W12335  35.219  18.784   2.486
59440W        W12336  24.583  30.990  10.211
59441W        W12337   6.897  15.033   9.368
59442W        W12338  26.002  35.534   1.759
59443W        W12339  10.711  28.998   0.223
59444W        W12340   2.255  19.141   7.672
59445W        W12341  25.418  19.502   9.802
59446W        W12342  29.148  16.332   7.573
59447W        W12343  27.675  15.351   7.442
59448W        W12344   6.354  22.655  10.258
59449W        W12345  10.990   5.095   1.214
59450W        W12346   9.439  14.991   0.685
59451W        W12347  29.151  28.424   2.787
59452W        W12348  22.933  23.052   8.593
59453W        W12349  29.357  15.449   1.961
59454W        W12350  19.278   6.247   2.723
59455W        W12351   3.782  12.873   3.690
59456W        W12352  16.211   7.525   8.488
59457W        W12353  25.843  17.110   7.117
59458W        W12354   3.533  12.247   2.119
59459W        W12355  23.670  12.656   9.787
59460W        W12356  14.609   9.859   2.602
59461W        W12357   4.910  10.804  10.124
59462W        W12358   9.929   3.211   9.998
59463W        W12359   0.704  11.647   9.784
59464W        W12360   1.949  17.686   1.542
59465W        W12361   7.720  29.396   0.168
59466W        W12362   5.587  25.954   9.290
59467W        W12363   4.616  24.238   0.844
59468W        W12364  35.390   0.876   9.020
59469W        W12365   7.165  31.010   0.115
59470W        W12366  18.960  24.186   7.857
59471W        W12367  23.506  28.753   7.894
59472W        W12368   8.912  25.271   3.019
59473W        W12369  10.879   2.554   1.034
59474W        W12370  21.797   9.397   8.505
59475W        W12371  24.750  31.511   8.457
59476W        W12372  20.495  34.730   1.012
59477W        W12373   7.327   8.172   2.427
59478W        W12374  28.728   3.478   9.401
59479W        W12375  23.342  20.259   0.125
59480W        W12376  13.966  19.272   0.318
59481W        W12377   5.666  16.370   7.542
59482W        W12378  22.992   6.375   7.159
59483W        W12379  35.488  22.068   2.676
59484W        W12380  25.986  32.255   1.613
59485W        W12381  11.745   4.794   0.670
59486W        W12382   3.030  24.632   8.029
59487W        W12383  27.917  12.043   2.574
59488W        W12384  22.677  21.289   3.840
59489W        W12385  34.352  34.902   0.243
59490W        W12386  10.576   9.803   3.067
59491W        W12387   0.954   3.618   8.224
59492W        W12388   3.080  23.130   8.247
59493W        W12389  28.340  16.848   0.132
59494W        W12390  26.887  12.066   7.959
59495W        W12391   5.111   4.623  10.010
59496W        W12392  33.566   1.466   0.043
59497W        W12393  22.687  33.937   8.863
59498W        W12394   1.885  20.193   1.689
59499W        W12395  22.859  35.404   9.962
59500W        W12396  14.865  12.598   0.942
59501W        W12397   1.324  29.765   8.685
59502W        W12398   0.556  28.042   0.255
59503W        W12399  32.172  30.279   0.140
59504W        W12400  16.733  18.113  10.283
59505W        W12401  18.602  12.850   8.620
59506W        W12402  32.188  32.762   8.489
59507W        W12403  22.584  11.949   0.379
59508W        W12404  21.641  35.904   9.572
59509W        W12405  33.814  17.561   3.123
59510W        W12406  24.285  14.382   9.025
59511W        W12407  16.839   8.038   7.960
59512W        W12408  30.202  30.036   8.108
59513W        W12409  17.151   3.627   1.611
59514W        W12410  10.918  33.115   9.011
59515W        W12411   8.695   2.121   8.381
59516W        W12412   7.340  21.333   8.129
59517W        W12413  19.487  14.757   1.331
59518W        W12414   7.460   1.333   2.129
59519W        W12415   9.440  13.216   3.111
59520W        W12416  29.947  10.515   8.546
59521W        W12417  11.615  17.240   9.658
59522W        W12418  13.871  25.972  10.195
59523W        W12419  28.801   3.826   2.828
59524W        W12420  35.394  21.195   2.663
59525W        W12421   5.805  21.144   8.537
59526W        W12422   3.778  35.234   7.698
59527W        W12423  27.196  29.552   1.450
59528W        W12424  34.893  26.241   9.443
59529W        W12425   4.929  15.779   0.480
59530W        W12426  13.363  16.136   2.827
59531W        W12427   4.570   3.289   3.180
59532W        W12428  19.520  32.308   7.747
59533W        W12429   9.977  13.374   8.587
59534W        W12430   5.042  30.430   1.641
59535W        W12431  21.047  10.187   3.766
59536W        W12432   5.854  18.532   8.209
59537W        W12433  19.754  27.545  10.157
59538W        W12434   3.901  13.582   1.984
59539W        W12435   5.112   9.142  10.102
59540W        W12436  21.374  30.300   2.532
59541W        W12437  35.158   2.649   0.369
59542W        W12438  10.111   1.978   9.570
59543W        W12439  29.670  19.786   1.447
59544W        W12440  26.293   5.133   8.522
59545W        W12441  23.591  34.490   9.528
59546W        W12442  15.748  26.115   8.241
59547W        W12443  26.190  24.192   0.980
59548W        W12444   0.214  14.769   2.102
59549W        W12445   3.321  10.650   9.586
59550W        W12446  33.971   4.200   9.807
59551W        W12447  32.806  34.129   0.911
59552W        W12448  13.993   2.714   8.686
59553W        W12449  26.998  27.710  10.063
59554W        W12450  28.941  13.448   1.751
59555W        W12451  28.664  29.158   2.521
59556W        W12452  28.448   7.942   9.843
59557W        W12453  30.495  32.043   0.696
59558W        W12454  35.125  14.370   0.393
59559W        W12455  12.960   6.402   2.060
59560W        W12456  16.535   3.200   8.250
59561W        W12457   5.022  19.406   0.427
59562W        W12458  27.338   9.410   1.282
59563W        W12459  12.979  19.308   9.100
59564W        W12460  10.694  13.848   8.044
59565W        W12461  12.386  26.834   2.403
59566W        W12462   4.855  25.757   1.867
59567W        W12463  20.500   7.983   1.626
59568W        W12464  29.384   0.723   9.978
59569W        W12465  21.288  25.864   8.236
59570W        W12466   4.448  25.396   0.276
59571W        W12467  27.770  34.695   2.746
59572W        W12468  31.824  23.172   6.956
59573W        W12469   7.214  27.575   0.791
59574W        W12470  28.555  28.058   9.384
59575W        W12471  24.851  11.411   2.551
59576W        W12472  29.189  24.659   7.894
59577W        W12473  25.111  28.411   0.201
59578W        W12474  26.723   2.619   0.731
59579W        W12475  12.391   1.471   0.808
59580W        W12476   8.302  26.123   6.820
59581W        W12477  30.933   7.066   2.662
59582W        W12478  27.680   2.673   3.426
59583W        W12479  28.331  26.563   7.633
59584W        W12480  18.467   6.850   7.358
59585W        W12481   7.803  32.724   1.501
59586W        W12482  11.684  33.953   7.871
59587W        W12483  22.457   6.177  10.251
59588W        W12484   9.883   7.848   1.524
59589W        W12485  17.201  22.750   2.679
59590W        W12486  14.433  25.497   7.832
59591W        W12487  17.538  29.902   1.748
59592W        W12488  18.171   7.802   7.934
59593W        W12489  25.794  11.018   8.895
59594W        W12490  24.794  30.017   2.983
59595W        W12491   1.829  11.700   9.826
59596W        W12492  28.680  23.478   9.556
59597W        W12493  15.133  25.548   1.922
59598W        W12494  17.060   6.899   8.862
59599W        W12495  15.998   4.668   1.568
59600W        W12496   9.595   4.207   0.246
59601W        W12497  18.704  28.135   7.550
59602W        W12498   5.294  29.630   0.254
59603W        W12499  29.272  24.316   3.329
59604W        W12500  13.338  29.207   2.506
59605W        W12501  15.864  33.894   9.361
59606W        W12502  29.738  29.278   1.078
59607W        W12503  32.681  27.873   8.150
59608W        W12504  26.739   2.553   9.290
59609W        W12505  31.847   8.655   7.844
59610W        W12506  16.355   0.089   2.706
59611W        W12507   8.226  16.235   9.531
59612W        W12508  22.935  20.575   9.720
59613W        W12509   5.161   2.750   1.543
59614W        W12510  31.730  21.533   9.505
59615W        W12511  17.783  14.113   0.728
59616W        W12512  32.454   2.558   9.674
59617W        W12513  17.556  34.995   2.213
59618W        W12514  23.333  19.916   0.661
59619W        W12515  30.576  20.943   7.446
59620W        W12516  27.849  34.332   8.824
59621W        W12517   9.281   1.835   0.977
59622W        W12518  31.006   5.359   9.454
59623W        W12519  13.567   4.163   0.639
59624W        W12520  32.276  35.164   9.309
59625W        W12521  10.940  24.319   9.231
59626W        W12522  10.552  19.053   9.263
59627W        W12523  10.754   4.778  10.060
59628W        W12524  32.681   3.251   7.870
59629W        W12525  27.325   6.642   1.700
59630W        W12526  12.549  17.530   9.830
59631W        W12527  32.683  29.780   2.023
59632W        W12528  25.682  18.334   0.197
59633W        W12529  24.331   4.777   9.997
59634W        W12530   1.861  18.270   2.246
59635W        W12531  27.663  34.195   9.336
59636W        W12532  13.368  16.996   9.979
59637W        W12533  31.399   9.393   3.408
59638W        W12534  34.223  27.800   3.156
59639W        W12535  27.176  15.241   2.879
59640W        W12536  16.153   3.011   9.866
59641W        W12537  18.559  33.712   1.153
59642W        W12538  21.224  19.057   9.763
59643W        W12539   2.419   3.792   7.607
59644W        W12540  13.557  18.866   8.244
59645W        W12541  21.485  23.004   7.879
59646W        W12542  19.944   9.644   1.587
59647W        W12543  13.753  18.356   9.647
59648W        W12544   1.763   2.351   7.661
59649W        W12545   2.600  19.038   1.304
59650W        W12546   6.685  25.162   1.009
59651W        W12547   8.962   4.155   9.014
59652W        W12548   7.011  25.406  10.115
59653W        W12549  32.760  20.736   8.286
59654W        W12550  29.016  23.131   8.086
59655W        W12551  15.048  21.534   2.177
59656W        W12552  17.892  33.539   1.330
59657W        W12553  25.755   8.360   0.180
59658W        W12554  33.009  17.549   9.015
59659W        W12555  30.018  13.628   7.783
59660W        W12556  16.563  26.360   8.003
59661W        W12557  26.173  12.856   1.810
59662W        W12558   5.087  10.211   0.921
59663W        W12559   4.560  21.101   3.066
59664W        W12560  28.523   5.657   2.224
59665W        W12561   0.310  28.623   0.785
59666W        W12562   6.422   6.397   7.595
59667W        W12563  22.822   0.332   3.318
59668W        W12564  27.792  10.848   9.747
59669W        W12565  24.340  20.686   2.201
59670W        W12566  24.990   4.691   8.908
59671W        W12567   2.099  25.755   8.510
59672W        W12568  23.337   2.238   0.060
59673W        W12569  21.091   3.780   1.288
59674W        W12570   8.018  34.207   8.223
59675W        W12571   9.581  16.251  10.089
59676W        W12572  18.018   9.621   2.786
59677W        W12573  16.835   3.567   8.502
59678W        W12574  23.995   7.662   8.121
59679W        W12575   1.572  28.531   0.234
59680W        W12576   9.536  24.342   9.346
59681W        W12577  30.303  30.495   9.222
59682W        W12578  17.157  10.288   2.057
59683W        W12579   3.057  29.453   9.947
59684W        W12580   5.293   6.136   1.409
59685W        W12581  17.339  27.624   3.057
59686W        W12582  29.651  25.093  10.008
59687W        W12583  21.772  32.688   9.245
59688W        W12584   7.859   4.986   0.464
59689W        W12585   7.113  16.516   8.665
59690W        W12586  25.053  30.195  10.141
59691W        W12587  12.931  20.324   7.844
59692W        W12588  16.902  19.308   4.106
59693W        W12589  19.249  15.829   3.353
59694W        W12590  10.574  29.323   9.278
59695W        W12591  26.428  14.666   1.717
59696W        W12592  29.840  18.565   8.461
59697W        W12593   9.027  28.823   2.731
59698W        W12594  19.864  11.499   1.439
59699W        W12595  12.175  26.100   0.063
59700W        W12596   9.208  10.009   1.653
59701W        W12597  21.317   9.446   1.987
59702W        W12598  21.509  10.511   7.310
59703W        W12599  11.389   2.253   6.997
59704W        W12600   6.842  32.745   2.274
59705W        W12601  25.923   8.248   0.689
59706W        W12602  32.175  28.708   8.112
59707W        W12603  13.374   1.294   1.909
59708W        W12604  23.372   1.818   0.295
59709W        W12605  30.717  14.280   3.136
59710W        W12606  19.812   7.319   2.370
59711W        W12607  32.825   6.918   0.784
59712W        W12608  26.964   9.845   0.292
59713W        W12609  24.206   5.129   0.336
59714W        W12610   6.680  11.019   0.720
59715W        W12611  34.368  34.593   0.914
59716W        W12612  18.176  12.853   1.343
59717W        W12613   4.948   9.068   7.620
59718W        W12614   5.055  26.122   9.763
59719W        W12615  32.745  23.731   9.781
59720W        W12616  34.349   4.209   0.329
59721W        W12617  23.456  26.648   3.003
59722W        W12618  32.129   4.501   1.498
59723W        W12619   0.845   5.484   8.543
59724W        W12620  28.752   1.876   0.536
59725W        W12621  22.959  14.474   3.513
59726W        W12622   6.097  28.437   8.528
59727W        W12623  26.575  20.703   0.373
59728W        W12624   3.550  33.445   2.990
59729W        W12625  15.262   6.131   0.904
59730W        W12626  19.901  21.560   1.231
59731W        W12627  26.053  24.540   9.687
59732W        W12628  10.958  15.118   7.666
59733W        W12629  18.431  11.034   2.733
59734W        W12630  30.221  16.662   8.483
59735W        W12631  35.365  34.698   2.594
59736W        W12632  23.137  35.876   9.969
59737W        W12633  30.016  28.350  10.329
59738W        W12634  17.138  33.300   9.755
59739W        W12635   3.134  10.470   2.189
59740W        W12636  29.504  12.060   1.728
59741W        W12637  16.546  17.303   9.681
59742W        W12638  11.298  10.620   0.095
59743W        W12639  11.887  26.237   0.724
59744W        W12640  32.991   3.344   8.552
59745W        W12641  32.858  25.792   3.059
59746W        W12642   4.056  23.201   3.714
59747W        W12643   8.817  30.735   8.199
59748W        W12644   1.491  27.518   1.626
59749W        W12645   6.140  35.030   8.932
59750W        W12646  23.182  31.931   0.485
59751W        W12647  17.176   2.995   3.172
59752W        W12648  16.861  16.885   7.978
59753W        W12649  34.611   9.787   8.023
59754W        W12650  20.501  18.774   0.479
59755W        W12651   1.606  22.905   9.290
59756W        W12652  18.294   5.040   3.305
59757W        W12653  19.994   5.008   0.762
59758W        W12654  35.126  14.621   9.378
59759W        W12655   8.796  34.615   2.017
59760W        W12656   2.004  31.887  10.076
59761W        W12657   5.484  28.824   1.772
59762W        W12658  15.047  31.484   7.971
59763W        W12659  30.380  10.613   0.085
59764W        W12660  16.008  21.168   2.167
59765W        W12661   8.795  18.277   0.028
59766W        W12662  13.856  23.741   8.171
59767W        W12663  22.250   8.974  10.141
59768W        W12664  22.573   8.998   2.426
59769W        W12665  30.094   5.705   3.081
59770W        W12666  24.005  30.198  10.167
59771W        W12667  24.117  28.404   1.600
59772W        W12668  12.740   6.569   8.052
59773W        W12669   7.377  18.039   9.146
59774W        W12670   5.590  27.000   1.230
59775W        W12671  31.113  32.676   7.748
59776W        W12672   5.819  33.902   3.299
59777W        W12673  12.414   3.244   0.393
59778W        W12674  23.037  29.534   1.451
59779W        W12675  12.464  20.845   1.860
59780W        W12676  19.417  26.865   8.401
59781W        W12677  12.161  20.691   3.190
59782W        W12678  22.897  11.332   9.212
59783W        W12679  19.312   0.827   1.454
59784W        W12680  29.275   6.044   9.185
59785W        W12681  24.956   0.795   0.547
59786W        W12682   5.899  10.792   2.503
59787W        W12683   6.020  20.581   1.617
59788W        W12684   0.317   2.132   2.504
59789W        W12685  17.407  22.783   2.128
59790W        W12686  28.102  23.455   9.567
59791W        W12687  16.096   1.133   0.115
59792W        W12688  23.410  12.847   3.361
59793W        W12689  25.682   9.130   0.727
59794W        W12690  12.870   5.759   0.855
59795W        W12691  12.279  19.978   9.181
59796W        W12692  16.113  16.229   8.713
59797W        W12693  13.876  20.433   2.627
59798W        W12694  23.783   0.378   9.239
59799W        W12695  18.723  33.045  10.280
59800W        W12696   9.334  29.617   2.386
59801W        W12697  23.185  34.945   2.347
59802W        W12698  10.203  20.518   0.617
59803W        W12699  22.837  15.362   9.240
59804W        W12700  17.171  34.624   2.041
59805W        W12701  34.857  13.212   7.829
59806W        W12702  29.550  26.435   0.183
59807W        W12703  14.062  32.254   8.888
59808W        W12704  21.289  14.080   7.617
59809W        W12705  22.975  29.395   9.959
59810W        W12706  19.852  32.216   0.521
59811W        W12707   5.208  32.902   1.878
59812W        W12708   2.464  20.521   8.267
59813W        W12709  20.238  11.949   2.569
59814W        W12710  35.777  22.212   3.542
59815W        W12711  25.804  22.005   9.483
59816W        W12712  32.951  20.491   0.550
59817W        W12713  10.294  14.826   1.983
59818W        W12714  27.515   2.894   9.322
59819W        W12715  22.423  26.547   8.206
59820W        W12716  35.128  19.395  10.203
59821W        W12717  23.683  28.764   8.546
59822W        W12718  29.639   7.408   2.201
59823W        W12719   3.291   2.906   2.384
59824W        W12720  15.810  17.265   8.395
59825W        W12721  13.581   5.139   0.644
59826W        W12722  34.584  13.918  10.131
59827W        W12723   4.324   2.956   8.612
59828W        W12724  14.607  16.698   2.366
59829W        W12725   1.678  24.308   7.967
59830W        W12726  20.572  32.662   8.660
59831W        W12727  26.422  25.637   7.544
59832W        W12728  26.820  30.240   8.445
59833W        W12729  13.593  24.163   0.962
59834W        W12730  29.743  33.287   2.046
59835W        W12731   2.581   1.041   3.132
59836W        W12732  16.232  33.039   9.102
59837W        W12733  20.489   7.977   8.106
59838W        W12734   4.828  17.266   9.377
59839W        W12735  33.753   1.935   1.109
59840W        W12736  16.320  31.819   7.650
59841W        W12737  33.486   1.670   9.160
59842W        W12738   0.795  11.939  10.221
59843W        W12739  31.039   9.245   1.562
59844W        W12740  35.757   8.190   9.751
59845W        W12741   7.003   3.136   9.695
59846W        W12742  31.559  13.259   7.964
59847W        W12743  25.160  18.093   9.747
59848W        W12744  28.237  18.244   9.738
59849W        W12745  10.170  18.289   0.094
59850W        W12746  33.136  12.291   2.547
59851W        W12747   3.771  32.120  10.197
59852W        W12748  24.188  29.437   0.806
59853W        W12749  17.962  28.327   0.523
59854W        W12750  29.889   9.970   0.380
59855W        W12751  24.044  22.181   9.490
59856W        W12752  18.330   0.017   8.495
59857W        W12753  34.397  27.122   8.911
59858W        W12754   0.427  35.751   1.195
59859W        W12755   7.256   5.286   2.641
59860W        W12756  16.530  24.117   0.093
59861W        W12757  25.236  27.348   2.468
59862W        W12758  15.886  10.418   2.500
59863W        W12759  26.725   7.229   2.546
59864W        W12760  25.319   9.480   1.850
59865W        W12761  10.062  17.245   1.187
59866W        W12762  35.123  13.523   0.796
59867W        W12763  22.368   4.981   9.446
59868W        W12764   5.833  24.605   8.442
59869W        W12765   3.319  20.998   8.546
59870W        W12766   2.001  32.682   2.108
59871W        W12767   7.109  11.070   9.371
59872W        W12768   5.414  20.252   0.506
59873W        W12769  15.166  17.896   3.242
59874W        W12770   1.935  25.412   0.287
59875W        W12771  15.816  20.534   1.255
59876W        W12772  33.354  15.668  10.090
59877W        W12773  27.634  24.477   0.180
59878W        W12774  22.888  25.580   2.443
59879W        W12775   2.673   8.631   2.310
59880W        W12776  30.534  28.376  10.258
59881W        W12777  30.450   0.316   1.912
59882W        W12778  25.481   0.536   2.313
59883W        W12779  18.309  27.750   2.869
59884W        W12780   9.326  13.120   0.995
59885W        W12781  16.400  14.862   2.028
59886W        W12782  24.113  29.446   1.691
59887W        W12783  30.204  20.012   1.652
59888W        W12784  29.554  33.276   7.464
59889W        W12785  32.947  13.690   9.658
59890W        W12786  34.181  21.810   3.201
59891W        W12787   0.644  18.343   0.779
59892W        W12788   7.729  27.701   8.417
59893W        W12789  12.853  10.769   2.191
59894W        W12790  34.307  28.134  10.109
59895W        W12791  12.217  31.637   2.485
59896W        W12792  10.778  34.752  10.228
59897W        W12793  18.260  34.151   2.577
59898W        W12794   3.153   4.070   0.018
59899W        W12795  14.376  12.790  10.229
59900W        W12796  10.073  19.213   9.281
59901W        W12797  24.898  20.436   7.297
59902W        W12798   3.794   8.440   7.576
59903W        W12799  17.479  17.305   8.485
59904W        W12800  10.597   2.006   9.512
59905W        W12801  30.400   2.894   2.970
59906W        W12802  19.832   2.974   7.960
59907W        W12803  20.610  30.059   0.075
59908W        W12804  16.420  35.979   0.827
59909W        W12805  32.299  34.192   1.012
59910W        W12806  16.885  25.402   0.887
59911W        W12807   1.578  14.385   9.325
59912W        W12808  35.367  32.110   7.933
59913W        W12809  19.652   6.068   9.572
59914W        W12810  28.430   1.344   2.511
59915W        W12811  33.492   2.003  10.275
59916W        W12812   6.916   5.026   9.054
59917W        W12813  34.053  29.475   2.436
59918W        W12814   4.677  27.803   2.289
59919W        W12815  28.062  35.870   0.019
59920W        W12816  30.887   2.070   2.768
59921W        W12817  27.179  10.217   1.183
59922W        W12818  19.449  12.549   0.571
59923W        W12819  19.707  18.477  10.196
59924W        W12820  30.172  30.630   8.456
59925W        W12821  23.926  31.117   9.627
59926W        W12822  22.886   0.408   7.894
59927W        W12823   2.193   8.343   8.128
59928W        W12824   8.683  25.566   1.801
59929W        W12825  21.179  28.964   9.701
59930W        W12826  35.382  17.453   1.022
59931W        W12827  21.263  12.258   7.835
59932W        W12828   0.255   7.331   0.392
59933W        W12829  17.240  33.922   3.118
59934W        W12830  26.229  11.298   0.734
59935W        W12831   7.920  24.887   2.830
59936W        W12832  32.652  33.026   0.439
59937W        W12833  33.456  16.220   2.806
59938W        W12834   3.347   9.752   0.210
59939W        W12835  10.518   8.148   8.702
59940W        W12836  13.989   3.981   8.282
59941W        W12837  19.844  28.622   2.216
59942W        W12838  28.832  35.430   9.953
59943W        W12839   5.520   8.183   1.058
59944W        W12840  31.218  23.535   0.279
59945W        W12841  29.476   4.096   2.176
59946W        W12842  19.142  17.877   9.074
59947W        W12843  18.907  15.296   1.396
59948W        W12844  34.941  25.517   3.769
59949W        W12845  30.584  17.926   8.909
59950W        W12846  16.961   3.332   9.684
59951W        W12847   0.871  25.337   4.309
59952W        W12848  31.965  15.222   2.141
59953W        W12849  35.693  28.078   0.016
59954W        W12850  24.195  23.056   2.132
59955W        W12851   2.543  27.937   1.527
59956W        W12852  14.971  10.166   9.186
59957W        W12853   6.519  32.534   1.443
59958W        W12854   0.371  28.126   8.958
59959W        W12855  11.358  30.086   1.662
59960W        W12856  24.616   7.855   2.097
59961W        W12857  17.751  35.602   7.424
59962W        W12858  24.587  14.002   1.172
59963W        W12859  13.604  14.927  10.178
59964W        W12860  22.573   3.075   0.829
59965W        W12861  13.563  29.327   2.060
59966W        W12862   0.883  19.434   8.275
59967W        W12863  24.348  20.502   0.599
59968W        W12864  11.109  12.400   3.385
59969W        W12865   6.926   9.969   0.699
59970W        W12866  29.669  12.633   7.755
59971W        W12867  24.392  28.537   3.251
59972W        W12868   3.763   3.137   0.065
59973W        W12869   7.118  35.856   8.184
59974W        W12870  34.819   2.330   1.803
59975W        W12871   5.488  34.638   9.137
59976W        W12872  16.317  34.842   8.368
59977W        W12873  29.274  16.211   0.801
59978W        W12874   7.467  25.676   8.729
59979W        W12875  14.619   3.940   0.464
59980W        W12876  19.182   8.497   7.554
59981W        W12877  16.458  19.217   9.917
59982W        W12878   6.051  29.397   7.952
59983W        W12879  24.936   7.631   1.798
59984W        W12880  21.120  15.537   0.459
59985W        W12881   8.390   8.232   9.751
59986W        W12882  11.932  33.937   1.129
59987W        W12883  27.294  12.058   9.813
59988W        W12884  33.845  11.517   1.336
59989W        W12885  35.314  34.922   0.714
59990W        W12886  25.578  18.112   1.468
59991W        W12887  19.706   8.383   2.000
59992W        W12888  15.890  34.569   8.539
59993W        W12889   1.283   1.373   9.178
59994W        W12890   8.669  34.462   2.922
59995W        W12891  29.243  19.348   9.724
59996W        W12892   3.057   4.874   8.127
59997W        W12893  34.282   7.666   8.239
59998W        W12894   4.294  32.187   9.109
59999W        W12895   1.751   6.081   0.368
60000W        W12896  25.713  24.091   9.657
60001W        W12897  25.214   4.109   2.481
60002W        W12898  23.216  16.537   1.812
60003W        W12899  19.603  18.952   0.654
60004W        W12900   7.153   4.722   3.248
60005W        W12901  35.364   3.824   0.163
60006W        W12902  22.099  19.831   9.955
60007W        W12903   9.682  32.536   9.761
60008W        W12904  10.931  22.168   1.239
60009W        W12905  30.349  14.090   2.886
60010W        W12906   6.876   9.759   9.276
60011W        W12907  13.289  29.974   0.061
60012W        W12908   5.039  26.546   2.953
60013W        W12909  19.209  21.594   2.811
60014W        W12910   3.606  26.046   9.317
60015W        W12911  32.930   3.684   0.474
60016W        W12912  32.829   5.529   1.890
60017W        W12913   5.060  35.082   8.315
60018W        W12914   5.104   9.200   0.739
60019W        W12915  30.680  14.545   9.505
60020W        W12916  15.697  24.563   1.298
60021W        W12917  32.156  21.702   9.897
60022W        W12918   7.510   3.289   9.959
60023W        W12919  17.942  32.678   1.110
60024W        W12920   9.076  27.661   0.466
60025W        W12921  29.416  33.729   7.437
60026W        W12922   2.730  17.502   7.204
60027W        W12923  10.090  10.651   7.987
60028W        W12924   9.403   9.063   0.461
60029W        W12925   6.001  33.336   0.675
60030W        W12926  21.979   5.923   1.414
60031W        W12927  23.138  35.383   2.673
60032W        W12928   8.650   3.160   2.140
60033W        W12929  15.144   1.160   9.635
60034W        W12930  21.017  35.716   1.858
60035W        W12931  18.344  20.080   1.631
60036W        W12932   7.968  26.489   0.963
60037W        W12933  28.644  30.621   3.123
60038W        W12934   8.349  26.564   9.191
60039W        W12935  29.827  22.911   8.078
60040W        W12936  34.883  29.618   0.902
60041W        W12937  23.424   5.021   1.691
60042W        W12938  13.973  15.307   7.517
60043W        W12939  19.270  21.145   9.854
60044W        W12940  16.280   2.899   1.490
60045W        W12941  17.261  10.077   3.746
60046W        W12942  27.679  35.208   2.944
60047W        W12943  13.846  27.671   9.165
60048W        W12944   1.500   5.349   9.249
60049W        W12945   1.933  34.888   0.015
60050W        W12946  13.359  18.351   8.177
60051W        W12947  24.262  12.820   1.742
60052W        W12948  16.675  22.109   0.919
60053W        W12949  14.362  13.843   8.848
60054W        W12950   1.483   3.978   9.905
60055W        W12951  24.586  13.239   2.780
60056W        W12952  10.937  30.879   1.882
60057W        W12953  24.853  29.272   0.568
60058W        W12954  21.049  18.425   0.813
60059W        W12955   4.103  15.081   9.928
60060W        W12956  20.838  35.749   8.643
60061W        W12957  35.206   1.782   2.006
60062W        W12958  11.269   4.725   0.766
60063W        W12959  23.799   3.760   2.477
60064W        W12960   4.655  26.184   0.511
60065W        W12961   3.641  17.520   9.130
60066W        W12962  25.466   9.796   7.389
60067W        W12963   8.673  29.541   3.199
60068W        W12964   0.032  15.066  10.167
60069W        W12965  14.707  35.119   8.527
60070W        W12966  28.359  34.243   0.212
60071W        W12967   7.443  25.502   9.213
60072W        W12968  28.316  13.940  10.011
60073W        W12969  14.208   7.240   8.592
60074W        W12970   9.956  10.262   9.965
60075W        W12971   5.176  11.224   1.109
60076W        W12972  33.813   0.756   0.779
60077W        W12973  11.170  21.980   1.657
60078W        W12974  23.148   2.615  10.122
60079W        W12975  18.159  16.797   2.360
60080W        W12976  16.359   4.026   0.487
60081W        W12977   6.626   9.330   3.483
60082W        W12978  19.655   4.272   8.943
60083W        W12979  26.689  21.072   7.416
60084W        W12980  22.704  33.978   3.099
60085W        W12981  20.195  23.142   0.151
60086W        W12982  25.560   8.836   8.045
60087W        W12983   6.905  24.749   9.343
60088W        W12984  11.871  11.765   7.657
60089W        W12985  19.088  19.890   3.320
60090W        W12986   3.634  15.778   3.226
60091W        W12987  12.450   4.681  10.286
60092W        W12988  22.968   7.573   1.960
60093W        W12989   0.481   9.120   1.925
60094W        W12990  22.148  10.874   8.174
60095W        W12991  31.634  11.976   9.426
60096W        W12992  31.802   8.802  10.067
60097W        W12993   3.664   3.919   0.594
60098W        W12994  33.913   6.717   9.201
60099W        W12995  35.237  19.649   9.816
60100W        W12996   1.234  30.267   9.915
60101W        W12997  35.263  21.013   3.567
60102W        W12998  26.601  15.476   2.644
60103W        W12999   1.695   4.875   8.377
60104W        W13000  29.998  10.566   9.403
60105W        W13001  28.695   9.461   1.751
60106W        W13002  16.106  11.448   2.133
60107W        W13003  12.123   4.499   9.924
60108W        W13004  19.675   9.125   0.310
60109W        W13005  27.334  18.476   9.073
60110W        W13006  35.908  32.413   3.731
60111W        W13007  32.661  29.699   7.985
60112W        W13008  24.702   4.808   7.096
60113W        W13009  19.249  26.881   7.630
60114W        W13010  29.479  19.024   7.201
60115W        W13011  26.887   3.075   8.553
60116W        W13012  16.763  27.398   1.002
60117W        W13013  10.774  29.190   6.875
60118W        W13014   9.715   1.301   7.252
60119W        W13015  29.434  33.308   1.662
60120W        W13016  28.062  35.285   2.177
60121W        W13017  21.023  33.526   3.412
60122W        W13018  10.871  19.005  10.215
60123W        W13019   2.688  14.554   2.469
60124W        W13020  30.913  16.655   1.537
60125W        W13021  30.580  17.902   9.693
60126W        W13022  11.320  10.250   2.981
60127W        W13023  22.184  30.779   9.770
60128W        W13024  16.156   7.091   9.333
60129W        W13025  10.433   0.699   0.451
60130W        W13026  20.789   2.720   9.142
60131W        W13027  32.592  34.116   8.415
60132W        W13028   7.356  33.395   0.832
60133W        W13029   9.710  19.810   8.840
60134W        W13030  29.892  15.139   2.509
60135W        W13031  34.877  26.778   1.580
60136W        W13032  32.197  12.607   8.586
60137W        W13033  27.756  12.119   9.645
60138W        W13034  20.936  12.965   3.916
60139W        W13035   3.133  23.414   3.136
60140W        W13036   6.160  14.563   2.360
60141W        W13037  31.641  20.333   9.850
60142W        W13038   1.320  24.957   1.574
60143W        W13039  23.624  17.985   1.029
60144W        W13040  29.662   4.514   7.412
60145W        W13041  26.891  29.944  10.257
60146W        W13042  11.607   8.950   1.699
60147W        W13043   3.795   1.203   3.046
60148W        W13044   5.836   7.417   1.803
60149W        W13045  29.686  20.615   7.722
60150W        W13046  25.699   8.356   8.181
60151W        W13047  34.944  23.690   7.886
60152W        W13048  15.833  14.761   8.193
60153W        W13049   8.097  29.127   1.698
60154W        W13050  19.576  24.290   7.352
60155W        W13051   5.867  21.965  10.103
60156W        W13052  32.735   9.156   8.976
60157W        W13053  22.641  19.528   2.191
60158W        W13054  20.420  20.512   7.885
60159W        W13055  16.161   5.346   1.103
60160W        W13056  27.601  17.313   9.260
60161W        W13057   9.959  23.469   7.243
60162W        W13058  20.697  24.575   1.895
60163W        W13059   9.734  26.793  10.043
60164W        W13060  13.035  23.677   3.298
60165W        W13061   2.655  12.401   3.097
60166W        W13062  27.247  22.407   1.799
60167W        W13063  17.060  16.305   7.963
60168W        W13064  32.273  19.290   2.635
60169W        W13065  30.146   6.499   7.663
60170W        W13066   8.389  31.113   3.058
60171W        W13067   4.962  12.354   2.729
60172W        W13068  26.084   7.236   0.541
60173W        W13069  15.570  13.557   1.700
60174W        W13070  32.269  14.532   1.850
60175W        W13071  29.934  18.040  10.285
60176W        W13072  27.468  20.461   7.623
60177W        W13073  16.822  11.119   1.639
60178W        W13074   6.476  12.938   2.666
60179W        W13075  11.732  13.535   8.695
60180W        W13076  27.483   8.526   8.812
60181W        W13077  18.601   5.966   0.463
60182W        W13078  22.170   2.833   2.459
60183W        W13079  32.278   2.726   0.317
60184W        W13080  22.754  23.156   2.375
60185W        W13081   8.586   4.275   1.095
60186W        W13082  26.066  35.722   2.203
60187W        W13083   7.304  24.100   0.020
60188W        W13084  22.501  34.464   2.513
60189W        W13085  19.245   2.833   0.666
60190W        W13086  33.322   4.251   8.832
60191W        W13087  14.434  17.022  10.053
60192W        W13088  35.323   0.433   8.630
60193W        W13089   8.033   9.538   8.507
60194W        W13090   9.381  34.833   7.848
60195W        W13091  12.721  30.750  10.155
60196W        W13092  18.663  18.580   9.210
60197W        W13093  28.651  26.946   2.701
60198W        W13094  11.084   9.722   8.517
60199W        W13095   5.611  13.796   1.268
60200W        W13096  11.599  30.605   2.496
60201W        W13097   5.964  21.385   0.087
60202W        W13098  14.859  11.338   9.093
60203W        W13099   1.606  17.263   9.990
60204W        W13100  21.316  29.214   1.530
60205W        W13101  23.932  23.634   3.063
60206W        W13102  35.069  19.574   9.030
60207W        W13103  20.234  13.601   9.765
60208W        W13104  14.501   6.400   8.227
60209W        W13105  34.983  30.596   0.508
60210W        W13106  20.615  23.361   9.959
60211W        W13107   6.161  26.325   8.540
60212W        W13108  29.110   4.559   9.354
60213W        W13109  11.000  17.844  10.002
60214W        W13110  19.154  11.078   2.268
60215W        W13111   6.024  19.101   8.957
60216W        W13112   6.031  24.759  10.185
60217W        W13113  23.424   6.317   9.626
60218W        W13114  11.109  33.569   9.181
60219W        W13115  11.742  11.582   1.238
60220W        W13116   5.935  30.654   1.577
60221W        W13117  17.247   0.189   0.917
60222W        W13118  11.815   4.436   7.529
60223W        W13119  30.127  16.763   9.551
60224W        W13120   2.115  10.000   1.367
60225W        W13121   3.529  19.051   2.317
60226W        W13122  15.236   8.994   9.418
60227W        W13123  27.331  20.118   1.560
60228W        W13124  22.914  14.798   2.608
60229W        W13125  21.773  22.717   0.808
60230W        W13126  29.860  22.789   7.404
60231W        W13127  16.439   2.351   0.882
60232W        W13128   1.063  28.636   3.144
60233W        W13129  28.004  11.245  10.236
60234W        W13130  27.833  11.234   8.456
60235W        W13131   0.425   5.655   7.806
60236W        W13132  27.806  13.992   3.040
60237W        W13133   9.614   0.056   9.064
60238W        W13134  23.852   6.871   9.861
60239W        W13135  19.706  18.766   9.463
60240W        W13136  31.048  34.358   8.332
60241W        W13137  12.584   4.807   9.147
60242W        W13138  13.467   4.339   0.131
60243W        W13139  15.023  10.031   2.843
60244W        W13140  29.007  13.163   1.334
60245W        W13141  15.549  25.851   7.447
60246W        W13142   6.195   5.176   1.546
60247W        W13143   4.179  20.794   8.892
60248W        W13144  32.063  29.729   8.952
60249W        W13145  23.245  32.088   9.557
60250W        W13146  32.985  23.721   3.013
60251W        W13147  25.753   0.617   8.593
60252W        W13148  24.116  23.660   9.972
60253W        W13149  35.707  32.789   8.551
60254W        W13150  35.397  11.430   8.641
60255W        W13151  33.999  24.226   1.372
60256W        W13152  27.772   3.551   0.622
60257W        W13153  15.253  28.092   9.270
60258W        W13154  13.207  23.864   0.949
60259W        W13155  24.144   2.121   9.081
60260W        W13156  14.043  26.868   7.829
60261W        W13157   4.872  31.084   2.398
60262W        W13158   4.399  27.091   8.621
60263W        W13159   8.565  10.557   2.809
60264W        W13160  35.450   3.751   2.240
60265W        W13161  33.362  19.294   1.989
60266W        W13162  13.005  30.238  10.120
60267W        W13163  21.230  24.113   9.958
60268W        W13164  17.136  26.653   2.344
60269W        W13165  25.337  29.272   0.357
60270W        W13166   6.661  15.159   2.798
60271W        W13167  24.133  19.803  10.333
60272W        W13168   0.501  30.064   3.050
60273W        W13169  20.144  33.466   3.019
60274W        W13170  19.277  13.517   0.894
60275W        W13171  34.790  32.255   1.934
60276W        W13172   1.862  11.164   9.766
60277W        W13173  30.975  18.231   8.715
60278W        W13174  10.085  31.252   0.291
60279W        W13175   0.436  25.190   3.747
60280W        W13176   5.732   7.781   9.167
60281W        W13177  18.029  35.590   2.227
60282W        W13178  22.917  19.632   0.730
60283W        W13179   5.402  18.132   0.882
60284W        W13180   2.359  31.998   3.045
60285W        W13181  29.478  32.937   0.346
60286W        W13182  21.883  31.650   1.114
60287W        W13183  27.480  32.512  10.016
60288W        W13184  10.751  23.023   8.713
60289W        W13185  10.889  27.935   8.244
60290W        W13186  29.794  27.826   3.084
60291W        W13187   2.885  24.155   1.202
60292W        W13188  28.132   7.619   3.100
60293W        W13189  34.446  13.282   9.410
60294W        W13190   8.060   2.634   2.732
60295W        W13191  19.497  20.474   1.120
60296W        W13192  15.964   2.231   0.715
60297W        W13193  25.858  17.085   9.599
60298W        W13194  15.739  35.336   0.626
60299W        W13195   3.280  10.224   0.199
60300W        W13196  28.052   7.210   1.231
60301W        W13197  32.668  26.873   0.208
60302W        W13198   0.732  11.499   9.273
60303W        W13199  23.397   3.713   7.961
60304W        W13200  31.071   1.457   8.333
60305W        W13201  16.991  17.704   2.163
60306W        W13202  28.841   3.809   0.060
60307W        W13203   2.688  24.391   9.720
60308W        W13204  19.904  18.563   0.387
60309W        W13205  34.388  35.227   8.925
60310W        W13206  13.443  11.540   8.761
60311W        W13207  35.989  35.809  10.325
60312W        W13208  26.087  15.488   1.622
60313W        W13209  27.512   2.145   0.516
60314W        W13210  31.730   7.844   7.338
60315W        W13211  20.934   2.745   1.332
60316W        W13212  26.993   7.008   8.854
60317W        W13213  25.029   3.072   9.577
60318W        W13214  16.462  35.601   2.654
60319W        W13215   5.032  30.167   8.779
60320W        W13216  16.099   1.435   1.040
60321W        W13217  15.108  15.595   2.731
60322W        W13218  16.453   8.716   0.902
60323W        W13219  20.465  21.490   3.245
60324W        W13220   7.265   7.436  10.144
60325W        W13221  11.506  34.387   3.336
60326W        W13222  23.719  21.430   2.904
60327W        W13223   5.501  21.139   9.283
60328W        W13224  21.124   6.606   8.914
60329W        W13225  15.355  11.528   9.329
60330W        W13226  13.828  23.671   9.924
60331W        W13227  10.169  13.101   3.464
60332W        W13228  34.485  31.095   1.427
60333W        W13229   4.881  30.361   7.762
60334W        W13230  24.209   8.786   1.496
60335W        W13231  30.768  13.400   9.093
60336W        W13232  23.155  12.027   1.647
60337W        W13233  20.808   6.634   0.776
60338W        W13234  31.393   6.988   1.762
60339W        W13235   8.622  16.968   9.586
60340W        W13236  34.119  10.880   1.134
60341W        W13237  14.654  29.264   2.925
60342W        W13238   5.279  24.738   1.225
60343W        W13239   0.866  28.828   8.067
60344W        W13240   4.341  18.978   7.761
60345W        W13241  31.045   2.006  10.277
60346W        W13242  24.055  27.870   0.958
60347W        W13243  24.560  32.510   8.519
60348W        W13244  22.576  35.207   9.597
60349W        W13245  25.624  17.528   2.233
60350W        W13246  29.302  18.097   8.193
60351W        W13247  17.387  30.636  10.255
60352W        W13248   8.442   9.772   1.100
60353W        W13249  22.318   0.228   1.888
60354W        W13250   0.827   5.745   1.952
60355W        W13251  31.417   6.610   1.276
60356W        W13252  21.519  21.278  10.233
60357W        W13253   6.632   8.635   9.483
60358W        W13254   6.953  14.328   3.407
60359W        W13255  13.759  19.599   9.092
60360W        W13256   4.074  29.693   0.787
60361W        W13257  25.711  16.783   9.074
60362W        W13258   6.680  24.559   2.028
60363W        W13259  13.306   5.972   2.210
60364W        W13260  27.034  16.011   1.463
60365W        W13261   4.051   6.578   0.600
60366W        W13262   2.276  23.084   0.764
60367W        W13263  21.013   4.042   9.147
60368W        W13264   2.435  24.999   9.916
60369W        W13265  12.974   9.767   2.909
60370W        W13266  18.420  35.702   0.171
60371W        W13267   6.601   7.659   9.330
60372W        W13268   9.361  23.471   8.064
60373W        W13269  32.322   9.058   0.892
60374W        W13270  13.264  16.286   1.911
60375W        W13271  16.875  31.756   9.863
60376W        W13272  18.952   7.313   3.693
60377W        W13273  28.593   3.970   1.108
60378W        W13274  32.035  28.520   8.586
60379W        W13275   4.656  25.578   9.675
60380W        W13276   2.124  17.078   1.749
60381W        W13277  13.886   5.487  10.265
60382W        W13278  29.175  29.567   1.795
60383W        W13279  13.462  22.159   9.123
60384W        W13280   7.195  20.146   0.903
60385W        W13281   6.896  31.372   9.950
60386W        W13282  21.042  35.582   7.732
60387W        W13283  27.136  15.006   9.527
60388W        W13284   5.041   7.401   8.727
60389W        W13285  27.999  30.565   2.754
60390W        W13286   3.858  18.166   0.779
60391W        W13287   5.082  25.415   2.897
60392W        W13288   7.225  12.240   1.645
60393W        W13289   1.960  22.217   9.927
60394W        W13290  14.509  12.196   1.185
60395W        W13291  16.434  33.533   7.134
60396W        W13292  16.340   7.857   0.502
60397W        W13293  34.417  31.259   2.787
60398W        W13294  24.634  35.079   1.181
60399W        W13295  15.929  28.175   0.236
60400W        W13296   2.213   3.483   1.909
60401W        W13297  28.551  32.705   0.068
60402W        W13298  17.207  17.619   3.582
60403W        W13299  33.633  34.541   7.742
60404W        W13300  31.530  21.833   3.708
60405W        W13301  32.653  14.545   2.388
60406W        W13302  18.298  34.817   9.719
60407W        W13303  31.603  24.469   0.738
60408W        W13304  33.162  25.784   8.983
60409W        W13305  34.665  19.261   8.949
60410W        W13306  18.866  30.272   1.457
60411W        W13307   5.562   7.579   9.707
60412W        W13308  28.656  12.406   9.258
60413W        W13309  10.385   9.055   2.618
60414W        W13310   7.317   9.103   0.715
60415W        W13311   6.314  21.421   1.123
60416W        W13312  10.464  33.656   1.428
60417W        W13313  19.297   4.120   2.034
60418W        W13314   1.076   1.454   8.545
60419W        W13315   3.641  10.398  10.245
60420W        W13316  22.382  21.446   3.009
60421W        W13317   4.362  20.009   9.261
60422W        W13318  17.457   5.778   8.936
60423W        W13319  13.297  33.327   8.958
60424W        W13320   9.716  22.283   7.986
60425W        W13321  19.586  28.339   8.373
60426W        W13322  11.136  21.997   0.239
60427W        W13323  10.963  17.641   2.093
60428W        W13324   1.153   0.066   2.391
60429W        W13325   0.211  30.402   7.407
60430W        W13326  34.705  21.454   1.931
60431W        W13327  23.751  13.929   0.445
60432W        W13328   8.061  20.537   2.214
60433W        W13329   9.149  32.733   9.057
60434W        W13330  10.989  26.083   8.421
60435W        W13331  14.217   5.882   4.067
60436W        W13332  18.243  24.313   8.681
60437W        W13333  32.513  26.759   9.980
60438W        W13334   7.001  14.247   9.707
60439W        W13335  21.955  13.799   1.484
60440W        W13336  21.490  18.601   9.677
60441W        W13337  29.715  31.487   9.186
60442W        W13338  21.660  13.846   2.096
60443W        W13339   3.736   3.848   7.253
60444W        W13340   5.702  33.695   2.711
60445W        W13341   8.547  30.958   8.595
60446W        W13342  14.080  27.751   0.548
60447W        W13343  18.014  27.627   1.912
60448W        W13344   9.665   7.879   7.761
60449W        W13345   5.537  23.899   1.812
60450W        W13346  33.536  32.118   2.251
60451W        W13347  23.295  27.598   2.778
60452W        W13348  29.423  22.267   7.917
60453W        W13349  25.224  10.833   2.251
60454W        W13350  27.260  31.243   9.324
60455W        W13351  23.053  33.622   2.915
60456W        W13352   0.881  27.275   3.138
60457W        W13353   5.759  23.140   9.818
60458W        W13354  16.354  21.635   0.765
60459W        W13355  31.748   0.845   9.451
60460W        W13356  29.360  19.168   0.986
60461W        W13357  28.188  19.032   8.704
60462W        W13358  34.407  25.721  10.287
60463W        W13359  20.484  20.135   7.623
60464W        W13360  19.401   0.347   0.509
60465W        W13361  17.804   0.364   8.756
60466W        W13362  10.841  19.341   0.586
60467W        W13363  30.954  29.479   7.285
60468W        W13364  13.391  29.475   0.290
60469W        W13365  21.571  24.046   0.500
60470W        W13366  24.068  25.669   1.712
60471W        W13367  28.626  10.553   7.970
60472W        W13368  18.460  13.042   2.666
60473W        W13369  21.497  27.686   9.751
60474W        W13370  13.382   8.869   2.010
60475W        W13371  25.727   9.409   1.157
60476W        W13372  15.379   9.251   1.055
60477W        W13373  34.199  25.066   2.749
60478W        W13374   3.197  14.207   1.073
60479W        W13375   8.403  22.674  10.143
60480W        W13376  32.059   2.091   2.154
60481W        W13377  21.018  14.923   8.469
60482W        W13378   4.141   2.892   2.700
60483W        W13379   0.864  14.889   2.687
60484W        W13380  14.444  26.823   0.084
60485W        W13381  28.926  33.065   6.992
60486W        W13382  24.544   1.786   0.452
60487W        W13383  22.806  13.655   2.909
60488W        W13384   8.251  18.818   1.696
60489W        W13385  31.007  35.452   1.893
60490W        W13386  25.603  24.797   9.941
60491W        W13387  33.130  29.448   9.594
60492W        W13388  20.232  16.177   8.645
60493W        W13389  22.651   6.199   3.273
60494W        W13390  29.458  21.323   2.444
60495W        W13391  19.404  29.478  10.232
60496W        W13392   5.059  11.275   9.417
60497W        W13393   7.938  19.797   0.437
60498W        W13394  21.687   0.190   0.634
60499W        W13395  35.675  29.290   8.390
60500W        W13396  23.203  16.114   9.551
60501W        W13397   7.575  19.972   0.105
60502W        W13398  29.307  10.946   9.936
60503W        W13399  34.101   6.743   1.612
60504W        W13400   3.701  15.900   1.686
60505W        W13401  25.658   7.187   9.105
60506W        W13402  21.073  11.091   2.249
60507W        W13403  19.199   7.807   0.782
60508W        W13404   2.170  30.424   9.609
60509W        W13405   0.095   1.075   0.475
60510W        W13406  18.193  13.275   0.146
60511W        W13407  13.786   1.742   2.628
60512W        W13408  10.755  19.508   1.025
60513W        W13409  31.699   9.547   1.563
60514W        W13410  29.054   3.178   8.711
60515W        W13411   3.083   9.984   8.508
60516W        W13412  11.717  12.336   2.671
60517W        W13413  18.245  14.179   0.558
60518W        W13414  35.414  33.247   9.904
60519W        W13415  27.372  23.236   0.331
60520W        W13416  27.710  13.743   0.119
60521W        W13417  24.187  15.299   0.647
60522W        W13418  35.201   2.061   1.597
60523W        W13419  22.621   8.957   7.734
60524W        W13420  28.088  27.689   9.673
60525W        W13421  10.737  24.472   2.646
60526W        W13422   3.262   7.173   0.726
60527W        W13423  11.356   9.438   3.228
60528W        W13424  33.888  30.597   0.786
60529W        W13425   7.197  35.609   3.167
60530W        W13426  27.827   3.447   0.122
60531W        W13427  23.313  10.913   2.756
60532W        W13428  14.253  21.019   7.468
60533W        W13429  29.369  34.223   7.187
60534W        W13430  31.687  22.756   8.058
60535W        W13431  29.013  10.462   9.756
60536W        W13432   8.879  33.146   8.828
60537W        W13433  10.352  35.134   3.247
60538W        W13434  18.986  12.566   8.161
60539W        W13435   5.265  35.647   0.174
60540W        W13436  26.354  24.651   2.284
60541W        W13437   1.550  16.943   9.575
60542W        W13438   5.052  14.018  10.306
60543W        W13439  33.184  16.785   0.381
60544W        W13440  25.363   7.797   9.975
60545W        W13441  35.539  22.333   3.076
60546W        W13442  27.725  17.915   9.804
60547W        W13443  18.708   8.565   0.378
60548W        W13444  27.422   7.586   0.149
60549W        W13445  15.532  21.913   8.954
60550W        W13446  10.136  24.083   1.950
60551W        W13447  32.892  32.781   3.612
60552W        W13448  14.882   1.228  10.102
60553W        W13449  29.116  28.755   9.018
60554W        W13450  13.280  32.692   1.466
60555W        W13451   8.158  12.618   9.741
60556W        W13452   8.367  32.559   1.500
60557W        W13453  28.605  34.203   9.300
60558W        W13454  21.183  19.335   8.374
60559W        W13455  32.423  17.090   8.291
60560W        W13456  19.666  35.966   9.773
60561W        W13457  21.075  22.808   3.085
60562W        W13458  15.825  11.094   1.902
60563W        W13459  27.795  35.569   0.963
60564W        W13460   3.148  27.982   8.751
60565W        W13461  12.426  35.130   1.466
60566W        W13462   3.932  30.467   9.577
60567W        W13463  20.120  35.952   1.556
60568W        W13464   0.322   4.529   2.180
60569W        W13465  12.127  14.740   0.512
60570W        W13466  35.208  30.334   1.523
60571W        W13467  20.980  21.704   0.909
60572W        W13468   5.232  23.086   9.219
60573W        W13469  19.938   0.946   9.798
60574W        W13470  10.565  23.993   9.348
60575W        W13471  34.414  34.755   2.605
60576W        W13472  12.277   3.845   1.194
60577W        W13473  22.198  21.219   0.298
60578W        W13474   1.681  10.699   7.907
60579W        W13475   1.847   2.387   9.467
60580W        W13476  11.229  32.757   9.065
60581W        W13477  18.876   1.904   2.681
60582W        W13478   6.023  14.455   9.206
60583W        W13479  25.862  13.487   0.127
60584W        W13480  14.253  19.839  10.325
60585W        W13481  13.629  15.445   8.416
60586W        W13482   1.932  25.639   9.416
60587W        W13483   7.520  19.047   2.491
60588W        W13484  22.299  22.233   9.839
60589W        W13485  18.429  13.745   1.362
60590W        W13486   7.881  31.948   1.079
60591W        W13487   6.762   2.187   3.260
60592W        W13488  18.553   1.513   9.012
60593W        W13489  13.220  20.983   0.396
60594W        W13490  32.428  29.504   7.571
60595W        W13491  16.924  31.832   0.608
60596W        W13492  25.511  17.427   9.762
60597W        W13493  11.149   6.883   1.808
60598W        W13494  10.924  34.299   3.316
60599W        W13495  17.213  26.286   2.916
60600W        W13496  29.699  21.482  10.038
60601W        W13497  13.932  17.465   2.676
60602W        W13498   4.011  24.577   0.301
60603W        W13499   3.437  24.345   7.841
60604W        W13500   4.235   3.659   1.422
60605W        W13501  17.255   6.661   0.753
60606W        W13502  21.567  16.624   1.898
60607W        W13503  12.274  22.526   1.143
60608W        W13504  17.063  19.110   0.432
60609W        W13505   5.516   4.646   9.151
60610W        W13506  22.956   6.707   8.495
60611W        W13507  18.280   9.253  10.220
60612W        W13508  35.548  35.952   1.618
60613W        W13509   8.069  22.113   3.165
60614W        W13510  32.990  10.556   6.961
60615W        W13511  26.902  13.996   2.689
60616W        W13512  11.753  10.862   7.984
60617W        W13513  18.469  30.215  10.084
60618W        W13514  13.818  28.932  10.196
60619W        W13515   9.799  25.021   7.990
60620W        W13516  18.531  28.169   8.579
60621W        W13517  23.865  23.159   3.296
60622W        W13518  18.614   2.526   3.493
60623W        W13519   7.820   2.581   0.800
60624W        W13520  33.225  25.939   1.550
60625W        W13521  10.308   3.521   6.951
60626W        W13522  17.421  31.159  10.247
60627W        W13523   8.584  27.931   8.000
60628W        W13524  10.421  24.768   8.713
60629W        W13525  27.635  27.012   9.733
60630W        W13526  30.091   6.875  10.118
60631W        W13527  28.181  17.222   7.639
60632W        W13528   0.930  20.919   0.226
60633W        W13529  29.367  29.728   7.662
60634W        W13530  20.059   2.263   0.891
60635W        W13531  10.954   9.657   2.391
60636W        W13532  31.048  14.451   0.917
60637W        W13533   6.384  17.550   9.709
60638W        W13534   2.906   1.131   3.490
60639W        W13535  31.871  11.398   1.235
60640W        W13536  31.888  30.424   7.848
60641W        W13537  35.865   5.897   2.228
60642W        W13538  27.873  10.393   1.593
60643W        W13539  29.743  19.816   0.084
60644W        W13540  10.678   0.510   2.346
60645W        W13541  27.324   5.188   1.651
60646W        W13542  33.513  33.486   0.710
60647W        W13543  24.789  21.968   0.095
60648W        W13544  23.754  15.587   3.012
60649W        W13545  27.661   0.545   8.095
60650W        W13546   4.197  21.886   1.693
60651W        W13547   5.163  16.499   8.913
60652W        W13548  35.491  35.627   3.286
60653W        W13549   8.887  13.433   9.699
60654W        W13550  32.365  34.151   3.259
60655W        W13551   8.398  33.172   8.635
60656W        W13552  22.084  12.213  10.309
60657W        W13553  21.694  11.627   1.850
60658W        W13554  15.246  32.638   0.949
60659W        W13555  35.528  32.445   8.961
60660W        W13556   6.151  34.971   0.481
60661W        W13557  13.694  25.022   9.951
60662W        W13558  31.568  25.900   1.460
60663W        W13559   0.146  32.897   8.123
60664W        W13560  28.971   5.242   1.501
60665W        W13561   9.659   3.951   1.194
60666W        W13562  32.401  16.783   3.201
60667W        W13563  32.029  26.175   7.557
60668W        W13564  24.855  26.559   9.852
60669W        W13565   8.399  35.654   7.076
60670W        W13566   3.129  23.856   0.203
60671W        W13567  21.445   7.435   0.586
60672W        W13568   1.885  13.795   9.622
60673W        W13569   4.835  12.779   0.463
60674W        W13570   0.668  17.897   8.017
60675W        W13571   1.524   7.884   0.963
60676W        W13572  12.173  17.406   9.484
60677W        W13573   8.996  31.164   3.136
60678W        W13574  22.312  14.243  10.117
60679W        W13575  17.576  31.736   8.755
60680W        W13576  22.029  15.171   2.501
60681W        W13577  14.824  29.246   8.445
60682W        W13578  22.089  11.979   9.037
60683W        W13579  33.670  29.226   0.615
60684W        W13580   1.434  33.675   3.700
60685W        W13581  22.460  12.026   2.776
60686W        W13582  27.843   8.065   8.693
60687W        W13583  12.970   6.767   9.514
60688W        W13584   3.164  15.104   2.870
60689W        W13585  30.165  11.433   1.926
60690W        W13586   6.849  13.434   1.220
60691W        W13587  28.027  24.778   0.038
60692W        W13588  22.914  10.476   7.993
60693W        W13589  20.811  29.746   2.630
60694W        W13590   4.010  28.610   2.466
60695W        W13591  16.274  32.229   0.312
60696W        W13592   1.155  28.278   6.933
60697W        W13593  13.589   2.419   0.400
60698W        W13594  32.857   2.794   7.731
60699W        W13595  14.940  25.740   2.742
60700W        W13596  21.438  19.575   9.147
60701W        W13597  31.141  28.435   0.617
60702W        W13598   1.802  24.103   9.157
60703W        W13599  20.753  21.396   9.817
60704W        W13600  16.167  13.568   3.054
60705W        W13601  26.106  30.569  10.183
60706W        W13602  10.204   3.082   7.113
60707W        W13603  11.143  28.448   8.196
60708W        W13604   9.228   7.050   2.453
60709W        W13605  23.961   7.531  10.168
60710W        W13606   0.693  32.354   3.382
60711W        W13607   5.014  23.136   1.394
60712W        W13608  28.987  11.367   1.894
60713W        W13609   4.412  15.129   8.592
60714W        W13610  14.643  27.040   0.994
60715W        W13611  32.012  24.632   1.976
60716W        W13612  14.755  14.872   7.103
60717W        W13613   0.178  32.754   1.644
60718W        W13614  27.673   7.637   7.840
60719W        W13615  16.094  34.522   1.023
60720W        W13616  33.340  20.359   3.346
60721W        W13617   1.851  21.165   1.503
60722W        W13618  34.726  31.901   1.585
60723W        W13619  26.101  33.970   8.257
60724W        W13620   4.312  16.031   2.929
60725W        W13621  32.355  30.678   1.304
60726W        W13622  15.162  19.573   1.134
60727W        W13623  14.353  34.929   2.187
60728W        W13624  24.872   7.086   9.513
60729W        W13625  21.524   5.580   9.092
60730W        W13626   6.558   3.306   9.894
60731W        W13627  22.494  30.330   2.179
60732W        W13628  14.000  34.518   0.146
60733W        W13629  18.259  21.924   1.990
60734W        W13630  31.621  17.802   0.288
60735W        W13631  35.755  29.214   8.856
60736W        W13632   7.443   5.100   0.090
60737W        W13633  18.977   4.714   2.641
60738W        W13634  19.467  10.377   2.427
60739W        W13635  14.992  17.609   3.597
60740W        W13636  22.482   4.644   0.159
60741W        W13637  24.933   8.309   2.633
60742W        W13638  35.978   2.782   7.587
60743W        W13639  18.293  29.426   2.298
60744W        W13640   2.022  15.255   0.433
60745W        W13641  25.944  11.573   7.092
60746W        W13642  17.098  11.298   0.687
60747W        W13643  14.173  21.135   2.535
60748W        W13644   0.629  30.594   3.156
60749W        W13645  33.442  26.641   0.107
60750W        W13646  10.027  26.800   0.175
60751W        W13647   5.928  16.830   9.021
60752W        W13648  35.391  27.410   9.405
60753W        W13649   9.609  20.823   9.569
60754W        W13650  25.135  33.921   8.280
60755W        W13651   9.486   6.369   0.497
60756W        W13652  35.269  17.081   4.255
60757W        W13653  14.216  22.179  10.248
60758W        W13654  34.249  19.247   2.559
60759W        W13655  30.604  28.902  10.107
60760W        W13656  16.250   2.121   2.210
60761W        W13657  10.283   3.419   7.461
60762W        W13658  33.989  35.431   9.279
60763W        W13659   8.527  15.484   8.275
60764W        W13660  30.140  17.619   9.541
60765W        W13661   1.839  25.644   3.038
60766W        W13662  22.846  14.194   1.678
60767W        W13663  11.448  10.300   8.953
60768W        W13664  21.881  17.326   7.735
60769W        W13665   0.837  31.824   1.409
60770W        W13666  28.255  21.555   2.472
60771W        W13667  13.713  15.286   3.343
60772W        W13668   3.925  17.448   2.334
60773W        W13669  33.689  23.176   0.847
60774W        W13670  16.127  13.908  10.171
60775W        W13671  21.977  24.754  10.002
60776W        W13672  18.130  11.668   7.647
60777W        W13673   3.849  10.904   3.188
60778W        W13674  31.497  10.588   8.650
60779W        W13675  11.660  20.586   1.321
60780W        W13676  17.612  19.771   1.162
60781W        W13677  27.499   2.016   8.915
60782W        W13678   2.409  31.887   9.679
60783W        W13679  14.447   1.555   9.344
60784W        W13680  21.620   1.957  10.137
60785W        W13681  31.883  28.798   2.756
60786W        W13682   1.280  22.889   1.510
60787W        W13683  31.097  28.712   9.633
60788W        W13684  25.893  35.531   8.556
60789W        W13685  32.927   7.144   1.555
60790W        W13686   1.480   1.858  10.155
60791W        W13687  30.870  34.520   0.785
60792W        W13688   8.684  21.622   1.162
60793W        W13689  12.348  10.196   8.007
60794W        W13690  31.652   0.011   9.826
60795W        W13691  16.824   7.154   2.047
60796W        W13692   9.343  32.567   3.305
60797W        W13693  15.278  35.380   2.148
60798W        W13694  12.263  32.637   0.863
60799W        W13695  10.561  34.396   9.199
60800W        W13696  26.361   4.638   9.144
60801W        W13697  19.821  29.909   0.024
60802W        W13698   2.113  28.545   2.533
60803W        W13699  25.306  22.950   9.307
60804W        W13700  19.591  31.144   2.828
60805W        W13701   7.125  34.719   8.063
60806W        W13702  26.693  11.550   0.722
60807W        W13703   3.634  32.431   1.493
60808W        W13704  17.371  14.008   9.569
60809W        W13705  17.262   3.214   1.870
60810W        W13706  20.568   4.998   0.930
60811W        W13707  17.409  29.018   2.578
60812W        W13708  34.474  27.694   2.630
60813W        W13709  20.713  20.241   9.718
60814W        W13710   8.163  27.760   0.499
60815W        W13711   4.131   0.254   7.699
60816W        W13712  26.594  13.441   1.318
60817W        W13713   0.402  17.676   9.649
60818W        W13714   9.742  27.938   2.657
60819W        W13715   7.358  17.321   9.696
60820W        W13716  17.105  26.908   1.916
60821W        W13717  13.627   0.798   3.123
60822W        W13718  29.767  22.506   1.695
60823W        W13719  21.441  18.259   3.463
60824W        W13720  31.326   9.520   7.123
60825W        W13721  29.175  10.983   9.355
60826W        W13722  32.861  11.800   2.372
60827W        W13723   3.156   2.482   0.815
60828W        W13724  15.571  19.080   0.193
60829W        W13725  19.758  16.491   7.936
60830W        W13726  13.911  30.170   8.236
60831W        W13727  34.342   3.316   2.645
60832W        W13728  35.261  11.160   1.804
60833W        W13729   7.921  27.207   1.824
60834W        W13730  16.972  35.312   9.928
60835W        W13731  35.927  30.993  10.146
60836W        W13732  14.335  33.584   2.873
60837W        W13733  32.257  24.449   1.583
60838W        W13734  31.556   3.845   1.457
60839W        W13735   6.211   8.260   8.699
60840W        W13736  31.289   3.766   8.644
60841W        W13737  19.249  23.613   0.399
60842W        W13738   4.926  33.718   2.186
60843W        W13739  28.555  25.827   2.646
60844W        W13740  35.534   8.447   8.546
60845W        W13741  16.528   1.466   0.280
60846W        W13742  27.223  28.035   7.849
60847W        W13743  28.996  31.127   9.352
60848W        W13744  19.505  10.387   1.167
60849W        W13745   3.335  34.117   1.895
60850W        W13746  13.174   5.768   1.267
60851W        W13747  28.158  16.823   3.190
60852W        W13748   3.590  16.503   9.832
60853W        W13749   5.141  20.925   1.521
60854W        W13750   7.837   6.922   0.508
60855W        W13751  13.176  33.443   1.560
60856W        W13752  29.609  32.783   7.588
60857W        W13753  33.983  34.264   9.463
60858W        W13754   8.789  30.575   1.390
60859W        W13755  30.860  32.265   7.620
60860W        W13756   7.079  17.143   1.205
60861W        W13757  28.577  35.940   7.229
60862W        W13758   9.924  32.891   7.774
60863W        W13759  23.739  19.506   1.408
60864W        W13760  24.689  15.584   7.924
60865W        W13761  33.434   7.938   2.092
60866W        W13762  10.809  16.954   9.385
60867W        W13763  17.651  30.217   2.883
60868W        W13764  22.247  33.853   9.573
60869W        W13765  31.821  31.565   2.834
60870W        W13766   2.567  21.589   2.063
60871W        W13767  35.688  17.536   8.018
60872W        W13768  11.266  35.650   8.981
60873W        W13769  11.772  25.125   7.929
60874W        W13770  29.378   8.489   0.029
60875W        W13771  30.549  18.765   1.822
60876W        W13772   0.758   1.790   7.820
60877W        W13773  28.624  17.357   1.386
60878W        W13774   7.728  22.971   9.325
60879W        W13775  23.545   6.070   1.210
60880W        W13776   4.251  30.179   0.082
60881W        W13777  23.023  13.165   8.632
60882W        W13778  19.317  32.202   1.172
60883W        W13779  22.993  35.484   9.510
60884W        W13780  22.271  29.681   0.959
60885W        W13781  18.502  35.668   1.567
60886W        W13782  35.319   4.757   3.185
60887W        W13783   1.453  12.886   3.747
60888W        W13784  13.409   3.306   1.648
60889W        W13785  34.608  26.885   9.823
60890W        W13786  12.906  10.518   9.344
60891W        W13787  15.037   9.731   8.737
60892W        W13788   9.634   6.256   2.527
60893W        W13789   2.796  17.187   2.633
60894W        W13790   3.848  13.860   9.045
60895W        W13791  22.729  28.941   2.216
60896W        W13792   8.225  26.111   7.852
60897W        W13793  31.717  20.713   3.137
60898W        W13794   4.186   8.311   2.754
60899W        W13795   2.658  20.144   7.739
60900W        W13796  33.805   2.801   7.401
60901W        W13797  23.939  30.473   9.241
60902W        W13798  32.817   5.242   9.856
60903W        W13799   0.956  15.914   7.525
60904W        W13800   0.958   8.786   9.695
60905W        W13801  21.049  16.140   9.318
60906W        W13802   0.049  18.246   8.361
60907W        W13803   1.320  12.158   8.288
60908W        W13804  29.130   5.633   0.636
60909W        W13805  14.639  20.641   8.982
60910W        W13806  26.025   2.634   3.323
60911W        W13807  28.785   7.750   1.741
60912W        W13808  20.235  10.907   0.762
60913W        W13809  28.478  33.195   9.135
60914W        W13810   1.606  11.820   9.133
60915W        W13811  17.112  11.934   0.825
60916W        W13812   4.589  30.004   3.489
60917W        W13813  33.992   8.267   8.872
60918W        W13814  27.189   2.113   8.034
60919W        W13815  23.409  31.928  10.042
60920W        W13816   3.928   0.235  10.311
60921W        W13817   3.175  35.432   9.061
60922W        W13818   4.231  34.826   2.574
60923W        W13819   3.325  19.472   0.613
60924W        W13820  14.937   2.110   8.747
60925W        W13821   0.996  17.639   0.633
60926W        W13822  15.585   4.069   8.197
60927W        W13823  13.401  31.512   2.136
60928W        W13824  27.956  17.184   0.149
60929W        W13825   5.430  35.476   8.361
60930W        W13826  27.124   8.066   0.600
60931W        W13827  19.216   5.677   0.920
60932W        W13828   7.543  22.619   9.605
60933W        W13829  17.871  34.187   8.939
60934W        W13830  21.356   1.395   0.425
60935W        W13831  31.710   8.710   2.843
60936W        W13832  16.994  29.860   1.933
60937W        W13833   6.424  16.322   9.525
60938W        W13834  27.969  33.891   8.104
60939W        W13835   4.253  17.082   9.817
60940W        W13836  11.944  19.621   0.038
60941W        W13837   9.209  17.468   9.090
60942W        W13838   6.272  13.969   3.036
60943W        W13839   2.397  12.594   2.389
60944W        W13840  21.054  34.033   0.666
60945W        W13841   5.249  33.375   2.414
60946W        W13842  15.133   6.753   0.814
60947W        W13843  19.996   7.314   1.050
60948W        W13844   1.620  11.010   3.398
60949W        W13845  23.424  22.295  10.144
60950W        W13846  28.245  25.068   9.984
60951W        W13847  16.945  18.359   1.851
60952W        W13848   7.157  26.267  10.292
60953W        W13849  20.724  28.749   9.916
60954W        W13850  28.922   1.481   2.609
60955W        W13851   0.416  14.324   9.974
60956W        W13852   0.868  10.299   2.587
60957W        W13853  24.654  15.585   0.591
60958W        W13854   1.367  16.707   2.810
60959W        W13855   8.303   4.015   8.314
60960W        W13856   5.985  15.478  10.045
60961W        W13857  27.000  35.395   0.791
60962W        W13858  12.965  22.243   0.642
60963W        W13859  35.618  13.255   9.780
60964W        W13860   7.976  35.345   9.720
60965W        W13861  31.343  34.615   0.542
60966W        W13862   6.735   3.212   2.043
60967W        W13863  26.615  22.994   1.457
60968W        W13864  28.555  22.161   1.765
60969W        W13865  33.875  13.933   9.411
60970W        W13866  25.106   1.282   8.695
60971W        W13867   9.841  17.515   0.366
60972W        W13868  15.097  25.712   1.269
60973W        W13869   6.419  11.480   7.913
60974W        W13870  14.372   6.725   0.364
60975W        W13871   5.790   4.600   8.494
60976W        W13872   8.655   3.722   2.281
60977W        W13873  30.683  15.403   0.253
60978W        W13874  23.715  32.227   3.837
60979W        W13875  16.613  17.411   1.928
60980W        W13876  29.881   2.950   2.780
60981W        W13877  25.368  24.687   1.696
60982W        W13878  15.645   9.673   1.096
60983W        W13879  21.269   0.640   2.583
60984W        W13880  20.557   8.565   2.412
60985W        W13881  25.993  26.636   0.355
60986W        W13882   0.198  20.492   0.953
60987W        W13883  29.061  17.917   2.883
60988W        W13884   1.556   7.841   8.163
60989W        W13885  33.858  18.756   0.856
60990W        W13886  22.808   6.917   7.988
60991W        W13887   0.053  27.597   1.681
60992W        W13888   1.020  14.366   8.854
60993W        W13889  23.308  32.972   9.479
60994W        W13890   9.308   1.573   0.129
60995W        W13891  28.830   6.590   0.719
60996W        W13892   4.402  15.173   3.054
60997W        W13893  17.634   0.479   0.809
60998W        W13894  19.794  15.778   7.641
60999W        W13895  34.946  27.154   2.956
61000W        W13896  11.166   2.301   8.842
61001W        W13897  13.775  21.407   1.683
61002W        W13898   1.540  29.584   0.290
61003W        W13899  27.519  18.876   2.762
61004W        W13900  24.774   1.240   0.700
61005W        W13901  32.203  12.239   2.216
61006W        W13902  24.550  32.485   9.809
61007W        W13903  29.691  28.749   1.823
61008W        W13904  12.082  10.086   0.205
61009W        W13905   2.132   2.087   9.213
61010W        W13906  11.327   0.712   1.505
61011W        W13907   9.070  10.519   7.631
61012W        W13908  34.369  22.634   0.627
61013W        W13909  15.542   6.165   9.425
61014W        W13910  14.309  35.481   1.095
61015W        W13911   7.489   7.517   0.782
61016W        W13912  18.326   9.282   3.066
61017W        W13913   2.002   3.155   8.290
61018W        W13914  34.411  26.933   1.035
61019W        W13915  25.373  11.186   3.486
61020W        W13916  16.247  28.152   9.315
61021W        W13917  34.329  25.162   2.049
61022W        W13918   5.274  31.575   2.974
61023W        W13919  24.072   4.113   9.278
61024W        W13920  35.868  18.918   7.365
61025W        W13921  19.270  11.938   7.562
61026W        W13922   0.312   2.473   7.937
61027W        W13923  21.693  28.611   7.815
61028W        W13924  14.201  15.813   3.868
61029W        W13925   1.070  20.393   0.385
61030W        W13926  33.393  11.992   2.130
61031W        W13927  33.034  15.021   0.489
61032W        W13928  14.301  28.912   8.757
61033W        W13929  25.466  13.790   2.900
61034W        W13930  26.520  26.350   9.510
61035W        W13931  23.671  34.360   1.887
61036W        W13932  18.493  22.018   2.936
61037W        W13933  10.265  11.033   9.846
61038W        W13934  15.398  15.224   3.857
61039W        W13935  20.695  28.244   9.807
61040W        W13936  18.517  31.398   7.825
61041W        W13937   3.056  27.471   2.451
61042W        W13938  15.451  16.303   2.635
61043W        W13939   9.160  23.253   9.005
61044W        W13940   6.965  25.502   1.222
61045W        W13941  26.622   6.766   9.320
61046W        W13942   7.547  29.881   1.962
61047W        W13943  26.175  11.561   9.149
61048W        W13944  17.096  15.524   8.606
61049W        W13945  20.727  17.684   2.755
61050W        W13946   8.415  13.761   8.682
61051W        W13947  12.363  27.964   8.478
61052W        W13948  24.241  18.749   3.193
61053W        W13949  19.386   8.998   8.912
61054W        W13950  23.680  22.596   9.858
61055W        W13951  23.675  10.387   8.588
61056W        W13952  31.109   2.768   1.830
61057W        W13953  15.139  35.061   1.777
61058W        W13954   6.465  20.469   1.376
61059W        W13955  33.629  20.482   1.473
61060W        W13956  31.254  12.912   2.747
61061W        W13957  20.654  15.879   2.898
61062W        W13958  19.061  35.795   1.887
61063W        W13959  32.717   5.657   1.415
61064W        W13960   5.775  26.393   9.134
61065W        W13961  14.706  35.959   0.550
61066W        W13962  14.819  23.116   2.577
61067W        W13963   4.135   9.205   9.689
61068W        W13964  11.657  20.678  10.151
61069W        W13965  12.100  22.848   9.476
61070W        W13966  27.986  17.714   9.357
61071W        W13967   8.494   9.206   1.432
61072W        W13968  35.440  17.072   9.050
61073W        W13969  34.083  23.411   1.023
61074W        W13970  14.662  25.735   0.358
61075W        W13971  15.749   2.331   9.790
61076W        W13972   1.965   2.741   7.919
61077W        W13973   3.259  30.495   7.858
61078W        W13974  11.763  30.773   8.850
61079W        W13975  25.902  29.786   7.641
61080W        W13976   3.534   1.646   0.503
61081W        W13977  18.546  17.136   8.887
61082W        W13978  15.465  17.019   9.683
61083W        W13979   8.769   0.227   1.260
61084W        W13980  13.006   8.440   7.984
61085W        W13981  10.436  34.931   8.287
61086W        W13982  19.616   8.493   9.547
61087W        W13983  12.892  30.861   9.691
61088W        W13984  17.260   2.148   9.967
61089W        W13985   9.182  35.243   0.167
61090W        W13986  11.069  18.502   0.307
61091W        W13987  28.329  30.895   8.896
61092W        W13988  14.697  26.672   9.069
61093W        W13989  14.140  26.596   0.403
61094W        W13990  13.815   3.098   1.741
61095W        W13991   9.585   3.159   7.477
61096W        W13992  20.490  34.240   8.072
61097W        W13993  26.199  27.705   0.528
61098W        W13994  11.710  29.777   8.672
61099W        W13995  22.941  27.002   1.798
61100W        W13996  17.645   2.397   9.716
61101W        W13997  35.159  22.068   8.709
61102W        W13998  24.935  34.868   9.361
61103W        W13999   7.647  26.065   7.753
61104W        W14000  29.652  14.835   9.626
61105W        W14001  17.657   6.658   1.485
61106W        W14002  14.891  25.379   7.927
61107W        W14003  33.308  30.337   1.761
61108W        W14004   4.962  16.777   8.275
61109W        W14005  18.287  11.557   9.918
61110W        W14006   7.782  16.012   2.337
61111W        W14007   0.642  13.588   3.571
61112W        W14008  14.338  28.956  10.318
61113W        W14009  20.716   7.057   0.502
61114W        W14010  16.555  11.474   1.413
61115W        W14011  25.990  17.799   3.049
61116W        W14012   6.785  19.257   9.647
61117W        W14013  17.757  26.975   8.272
61118W        W14014  35.682  25.295   0.736
61119W        W14015   0.206   7.828   8.468
61120W        W14016  11.310  33.214   0.653
61121W        W14017   6.519  21.219   9.754
61122W        W14018  12.693   8.557   1.616
61123W        W14019   6.402   0.872   0.816
61124W        W14020  23.246   2.433   9.605
61125W        W14021  14.562  19.607   2.735
61126W        W14022  32.885  25.523   7.912
61127W        W14023   3.937  24.220   8.797
61128W        W14024  17.722  31.259   9.568
61129W        W14025  34.541   4.391   1.874
61130W        W14026  30.135  15.456   3.090
61131W        W14027  35.866  29.418   2.532
61132W        W14028  17.961  14.674   9.829
61133W        W14029  33.969  25.415   8.640
61134W        W14030  23.980  17.230  10.044
61135W        W14031   5.752  34.258   2.014
61136W        W14032  16.871  16.814   0.503
61137W        W14033  31.653  34.774   8.587
61138W        W14034  14.264  21.339   7.873
61139W        W14035  32.948  22.137   0.669
61140W        W14036  22.224  30.720   3.315
61141W        W14037  20.281  15.579   2.913
61142W        W14038  28.680  35.497   2.796
61143W        W14039   4.718  16.251   9.574
61144W        W14040  11.079  30.190   8.847
61145W        W14041  19.928  25.357   1.359
61146W        W14042  13.776   2.796   2.827
61147W        W14043  27.652   6.344   8.112
61148W        W14044  29.831  27.057   9.582
61149W        W14045  34.598  27.604   1.452
61150W        W14046   4.712  25.748   2.755
61151W        W14047  18.245  17.863   3.017
61152W        W14048  10.495   9.622   1.117
61153W        W14049  16.306  31.333   7.885
61154W        W14050  24.262   3.978   8.813
61155W        W14051  10.971   2.952   9.418
61156W        W14052   6.360  26.346   3.264
61157W        W14053   6.467  19.927   1.967
61158W        W14054   7.018  32.087   3.225
61159W        W14055  10.946  23.926   8.892
61160W        W14056  26.319  28.583   1.333
61161W        W14057  13.018  18.556   0.921
61162W        W14058  19.294  13.499   9.167
61163W        W14059   0.504  35.222   8.193
61164W        W14060   2.233  14.647   0.323
61165W        W14061  24.650  24.157   3.508
61166W        W14062  16.211  15.016   0.862
61167W        W14063  35.921   5.665   0.687
61168W        W14064  15.964  32.403   0.683
61169W        W14065  11.200   1.569  10.095
61170W        W14066  10.182  20.562   1.125
61171W        W14067  31.250  34.476   9.446
61172W        W14068  14.083  26.410  10.254
61173W        W14069   8.715  27.702   1.657
61174W        W14070  31.654  20.347   8.931
61175W        W14071  32.500  15.532   8.347
61176W        W14072   9.851  27.526   2.900
61177W        W14073   4.613   4.357   0.927
61178W        W14074  35.758  17.181   3.486
61179W        W14075  33.667   4.323   1.885
61180W        W14076  29.051  13.976   7.363
61181W        W14077  13.475  19.949   3.517
61182W        W14078  35.468  29.813   9.391
61183W        W14079   7.526  11.821   1.480
61184W        W14080  34.914   9.388   0.310
61185W        W14081  30.141   4.111   0.118
61186W        W14082   3.722  14.600   0.088
61187W        W14083   2.113  26.724   8.744
61188W        W14084   2.180  24.432   1.100
61189W        W14085   6.370  28.454   0.749
61190W        W14086   3.161  25.067   8.507
61191W        W14087   2.094  34.655   9.292
61192W        W14088  19.426   1.084   8.302
61193W        W14089   6.950  22.040   7.801
61194W        W14090   1.063  17.703   3.226
61195W        W14091   9.424  30.775   8.161
61196W        W14092  28.001   7.927   0.139
61197W        W14093  31.305  31.895   2.204
61198W        W14094  25.705  29.669   2.583
61199W        W14095   7.802  17.219   0.276
61200W        W14096  27.319  31.058   3.072
61201W        W14097   2.243  24.622   8.579
61202W        W14098  24.966   5.566   0.328
61203W        W14099   2.538   0.239   1.855
61204W        W14100  25.974  26.093   8.224
61205W        W14101  25.679   2.460   8.482
61206W        W14102  17.282  34.263   9.017
61207W        W14103   9.139   5.183   7.503
61208W        W14104  17.312  10.807   0.661
61209W        W14105  12.451  20.100   2.779
61210W        W14106  27.338  15.708   9.094
61211W        W14107  26.640   1.512  10.072
61212W        W14108  11.326  13.183   8.706
61213W        W14109  30.536  32.010   9.999
61214W        W14110   7.158   1.444   7.180
61215W        W14111   6.180  29.717   2.382
61216W        W14112  31.120  25.829   2.210
61217W        W14113  10.995   1.961   7.312
61218W        W14114   1.174  23.832   3.905
61219W        W14115  18.347  13.454   9.916
61220W        W14116   2.361   0.736   0.099
61221W        W14117  10.858   6.970   8.338
61222W        W14118  14.667  32.681  10.186
61223W        W14119  17.068   8.599   2.339
61224W        W14120   1.599  16.674   8.979
61225W        W14121   6.745  32.190   9.280
61226W        W14122  15.646  29.172   9.147
61227W        W14123  12.220  21.029   1.375
61228W        W14124  12.534  25.373   3.131
61229W        W14125  27.004   2.817  10.190
61230W        W14126   7.599   6.104   0.960
61231W        W14127   8.521  28.388   2.281
61232W        W14128  26.210  22.842   1.115
61233W        W14129  31.303   3.268   3.249
61234W        W14130  14.055   4.988  10.057
61235W        W14131  22.077  30.922   0.982
61236W        W14132   3.014  24.810   2.932
61237W        W14133   6.997   4.482   9.757
61238W        W14134  11.676  24.021   7.746
61239W        W14135  21.759  12.325   2.572
61240W        W14136   9.845  25.963   6.672
61241W        W14137  13.442  27.929   1.926
61242W        W14138  18.023   6.058  10.133
61243W        W14139   2.093   6.751   2.121
61244W        W14140  27.181  32.763   1.624
61245W        W14141  17.345  35.961   3.203
61246W        W14142  19.689  13.413   2.754
61247W        W14143  35.719  35.866   9.654
61248W        W14144  12.504  35.156   9.345
61249W        W14145  25.803  18.439   1.232
61250W        W14146   3.697  25.968   1.774
61251W        W14147   5.150  13.022   1.786
61252W        W14148   2.309  25.303   8.592
61253W        W14149  34.088   2.679   2.214
61254W        W14150   6.197  25.831   1.246
61255W        W14151   7.168  34.238   1.142
61256W        W14152  35.275  25.411   2.128
61257W        W14153  27.428  30.810   9.197
61258W        W14154  18.962  27.955   3.007
61259W        W14155   3.564  25.532   1.540
61260W        W14156   7.014   2.865   1.145
61261W        W14157  18.026  11.464   1.943
61262W        W14158  11.648  11.656   0.205
61263W        W14159   2.854  18.347   2.489
61264W        W14160  22.018   2.578   8.194
61265W        W14161  16.613  29.688   9.973
61266W        W14162  24.095  14.218   0.414
61267W        W14163  20.515   5.915   8.000
61268W        W14164   9.120  13.871   1.635
61269W        W14165   1.508   5.150   0.271
61270W        W14166  12.305  34.383   9.825
61271W        W14167  34.302   4.523   9.083
61272W        W14168  33.865  13.031   7.873
61273W        W14169   7.961  35.229   0.737
61274W        W14170   4.862  10.883   2.190
61275W        W14171  20.770  26.714   7.777
61276W        W14172  22.956  19.547   8.245
61277W        W14173  25.414  30.139   1.835
61278W        W14174  25.999   9.786   1.016
61279W        W14175  24.250  32.187   8.332
61280W        W14176   2.551  17.266   2.131
61281W        W14177   1.735   3.982   8.894
61282W        W14178   3.795  35.526   3.010
61283W        W14179  21.026   9.687   9.593
61284W        W14180   9.378  35.423   1.634
61285W        W14181   9.956  20.912   1.875
61286W        W14182   5.747  28.974   8.285
61287W        W14183  17.328  30.411   2.485
61288W        W14184  34.694   0.764   3.217
61289W        W14185  27.014  22.628   9.087
61290W        W14186  25.144   8.631   1.503
61291W        W14187  19.151   7.835   8.197
61292W        W14188   9.461   9.688   8.208
61293W        W14189   1.726  32.906   9.465
61294W        W14190  12.933  20.464   8.637
61295W        W14191   0.526  27.662   2.519
61296W        W14192  15.680  17.855   9.329
61297W        W14193   4.664  17.190   3.701
61298W        W14194   4.111  32.413   1.332
61299W        W14195  34.933   4.915   7.440
61300W        W14196  15.228  31.689   9.669
61301W        W14197  27.848  12.655   1.493
61302W        W14198   8.185   1.628  10.015
61303W        W14199   3.415   8.867   0.586
61304W        W14200  23.733  32.902   9.586
61305W        W14201   7.623  18.044   1.901
61306W        W14202  28.995  15.433   2.350
61307W        W14203  15.160  10.027   0.073
61308W        W14204  21.953  24.215   0.816
61309W        W14205  21.924   6.960   7.640
61310W        W14206  12.956  17.472   2.981
61311W        W14207  30.184  21.374   0.465
61312W        W14208   3.948   4.808   2.106
61313W        W14209  15.090  19.265   0.264
61314W        W14210  28.184  24.411   9.192
61315W        W14211  26.057  12.131   9.327
61316W        W14212   1.876  20.868   2.847
61317W        W14213  30.269   3.198   1.208
61318W        W14214  33.495  30.214   8.413
61319W        W14215  18.881   2.347   2.196
61320W        W14216  23.948  30.087   8.967
61321W        W14217  11.547  17.695   8.788
61322W        W14218  22.658   5.976   9.179
61323W        W14219   1.902  16.525   2.062
61324W        W14220  15.030  31.950   7.175
61325W        W14221  10.503   3.912   7.760
61326W        W14222  18.895  12.816   9.117
61327W        W14223  10.093   1.070   8.520
61328W        W14224  18.792   9.299   1.542
61329W        W14225  12.133  15.631   0.643
61330W        W14226  16.354  20.731   9.423
61331W        W14227   7.717  26.958   0.155
61332W        W14228  24.621  35.240   7.435
61333W        W14229   4.936   3.766   0.160
61334W        W14230  17.983   6.995   8.314
61335W        W14231  16.970  25.205   2.281
61336W        W14232  32.047  31.226   9.929
61337W        W14233   4.916  23.828   1.569
61338W        W14234  31.936   4.864   1.788
61339W        W14235  20.428  26.726   1.770
61340W        W14236  16.644  36.010   1.777
61341W        W14237   8.125  20.373   2.671
61342W        W14238  33.731  35.046  10.151
61343W        W14239  15.335  24.043   2.032
61344W        W14240   8.746   3.200   3.049
61345W        W14241   3.167  27.020   0.508
61346W        W14242   7.420   2.642   9.330
61347W        W14243  28.208  15.425   8.674
61348W        W14244  26.560   9.452   8.982
61349W        W14245  24.398  30.554   9.396
61350W        W14246   2.199  12.945   9.546
61351W        W14247  27.649  30.520   0.400
61352W        W14248  31.398  21.832   1.399
61353W        W14249  27.969   6.758   0.885
61354W        W14250  27.624  17.303   8.788
61355W        W14251  21.787  29.329   7.117
61356W        W14252  11.203  27.491   8.554
61357W        W14253   8.142  25.436   2.062
61358W        W14254  17.611  33.983   3.402
61359W        W14255  28.622   4.980  10.006
61360W        W14256  28.009  35.241   8.538
61361W        W14257  35.642  34.415   8.842
61362W        W14258  27.324  34.954   1.579
61363W        W14259   5.665  22.935   1.654
61364W        W14260   8.255   3.147   2.835
61365W        W14261  15.978  23.383   0.449
61366W        W14262  17.229   9.254   7.772
61367W        W14263  12.352   6.702   1.494
61368W        W14264  22.433   3.975   9.081
61369W        W14265  14.532  14.554   0.219
61370W        W14266  23.876  19.624   2.843
61371W        W14267  20.379  17.483   9.838
61372W        W14268  10.793  24.020   1.554
61373W        W14269  32.504  14.395  10.314
61374W        W14270  18.995   6.206   8.991
61375W        W14271   3.913  22.593   1.322
61376W        W14272  11.416  18.839   8.193
61377W        W14273  17.785  11.561   2.360
61378W        W14274  27.414  22.513  10.291
61379W        W14275  16.801  35.134   1.443
61380W        W14276   9.353  11.866   9.572
61381W        W14277  20.404  24.372   0.162
61382W        W14278  28.198  25.422   8.336
61383W        W14279  12.932  32.992   1.604
61384W        W14280  32.615  13.267   3.469
61385W        W14281  32.540  16.333   2.716
61386W        W14282  22.627  10.968   8.016
61387W        W14283  19.364   6.563   8.798
61388W        W14284  19.937  27.889   2.118
61389W        W14285   6.578  16.297   9.035
61390W        W14286  23.278  16.715   3.299
61391W        W14287   8.304   9.120   8.745
61392W        W14288   6.952  25.397   9.434
61393W        W14289  31.027  19.425   1.262
61394W        W14290  11.472   0.999   9.296
61395W        W14291   5.374  16.752   7.646
61396W        W14292  18.015  15.694   1.655
61397W        W14293  12.422  27.884   0.087
61398W        W14294   8.438  22.794   1.606
61399W        W14295   6.429  23.595   0.030
61400W        W14296  26.389  21.351   1.987
61401W        W14297   9.793  11.096   2.068
61402W        W14298  18.569  21.000   9.281
61403W        W14299  23.704  29.096   3.022
61404W        W14300  27.904   7.255   2.057
61405W        W14301   6.840  15.577   8.479
61406W        W14302  28.049  25.018   7.897
61407W        W14303   9.054   6.507  10.099
61408W        W14304   2.478   0.953   9.090
61409W        W14305   2.805   6.310   9.183
61410W        W14306  14.487  10.675   0.924
61411W        W14307  29.718  16.918   9.332
61412W        W14308   8.696  14.573   9.867
61413W        W14309  31.195  28.009   2.837
61414W        W14310   1.370  14.231   3.435
61415W        W14311  11.940  26.535   2.303
61416W        W14312  34.258   6.907   9.528
61417W        W14313  18.238  30.313   7.186
61418W        W14314   4.021  32.622   8.479
61419W        W14315   1.517  12.587  10.335
61420W        W14316  16.934  15.491   7.907
61421W        W14317  33.683  28.634   9.461
61422W        W14318  29.258   7.420   9.480
61423W        W14319   0.403  26.392   0.156
61424W        W14320  24.433  16.722   1.076
61425W        W14321   7.529  27.990   7.588
61426W        W14322   3.706   4.705   9.482
61427W        W14323  32.611  28.919   1.472
61428W        W14324   4.939  10.226   9.085
61429W        W14325   1.792  29.773   8.191
61430W        W14326  20.509  13.930   9.462
61431W        W14327  31.339  21.244   9.421
61432W        W14328   3.004  23.560  10.134
61433W        W14329  24.883  24.383   1.608
61434W        W14330  26.752  21.416   8.236
61435W        W14331  33.819   8.714   2.424
61436W        W14332  20.196  15.571   7.963
61437W        W14333  20.106  24.522  10.147
61438W        W14334  35.147   4.261  10.242
61439W        W14335  12.081  27.676   1.476
61440W        W14336  15.897   5.165   1.532
61441W        W14337  15.877  24.428   7.980
61442W        W14338   2.616  24.685   1.222
61443W        W14339   1.365  26.456   1.749
61444W        W14340  11.367  16.959   7.274
61445W        W14341   5.756   1.494   9.001
61446W        W14342  32.491  25.492   3.062
61447W        W14343  25.501  13.960   9.766
61448W        W14344  18.606   7.916   2.419
61449W        W14345  27.588   6.450   9.715
61450W        W14346  10.143  31.890   8.006
61451W        W14347  15.418   0.356   0.915
61452W        W14348  28.726  35.293   1.365
61453W        W14349  18.235  25.315   4.054
61454W        W14350  22.875  18.957   1.356
61455W        W14351  12.023  27.539   0.074
61456W        W14352  13.436  11.876   1.213
61457W        W14353  13.810   9.185   2.460
61458W        W14354  24.142  16.370   2.419
61459W        W14355   1.972  18.647   7.486
61460W        W14356   8.914  35.618   9.455
61461W        W14357  21.241  22.006   9.420
61462W        W14358  29.808  21.788   0.659
61463W        W14359  13.235  31.488   8.635
61464W        W14360  15.824   7.161   8.153
61465W        W14361  14.173   0.784   8.419
61466W        W14362  34.883  33.315  10.131
61467W        W14363   2.794   9.884   8.906
61468W        W14364  33.492  12.315   8.198
61469W        W14365  33.263  19.982   9.326
61470W        W14366   7.381  20.470   1.348
61471W        W14367   8.199  13.171   2.473
61472W        W14368  10.382   6.282   2.928
61473W        W14369  26.647   6.414   8.981
61474W        W14370  30.395  12.027   8.796
61475W        W14371  28.608   5.188   8.968
61476W        W14372  14.493  19.853   0.450
61477W        W14373  16.373   5.668   0.040
61478W        W14374  10.669  13.734   8.963
61479W        W14375   7.686  13.818   0.365
61480W        W14376  13.695   9.641   2.354
61481W        W14377  16.897   0.710   3.067
61482W        W14378  24.084  13.161   8.834
61483W        W14379  10.575  12.223   0.882
61484W        W14380  32.256  15.427   2.568
61485W        W14381  28.291   0.220   0.247
61486W        W14382  13.602   0.073   1.668
61487W        W14383  23.286  19.752   1.382
61488W        W14384  11.061  15.448   7.995
61489W        W14385   6.763  31.796   7.424
61490W        W14386   6.634  31.765  10.231
61491W        W14387  31.979  25.005   9.921
61492W        W14388   3.065   8.369   0.631
61493W        W14389   7.256  33.317   0.009
61494W        W14390  13.152   7.064   2.126
61495W        W14391  33.333  28.550   2.059
61496W        W14392  22.393  32.570   8.502
61497W        W14393  30.723  31.315   8.652
61498W        W14394  35.932   6.913   0.654
61499W        W14395  32.828  24.838   0.416
61500W        W14396  24.517  34.168   9.812
61501W        W14397  11.635  20.768   8.272
61502W        W14398  24.700  25.590   8.993
61503W        W14399  27.491  27.048   1.346
61504W        W14400  14.342   5.340  10.013
61505W        W14401  12.985  30.574   8.902
61506W        W14402  31.579  25.606   8.834
61507W        W14403   4.388  26.205   8.088
61508W        W14404  12.351  17.051   1.053
61509W        W14405  29.778  17.570   8.627
61510W        W14406  18.693  20.006   9.195
61511W        W14407  30.984  17.082   9.953
61512W        W14408  24.930  24.030   1.176
61513W        W14409  14.931   0.201   9.754
61514W        W14410   6.889   0.703   0.828
61515W        W14411  13.178  15.118   8.935
61516W        W14412  11.516  14.248   8.059
61517W        W14413   3.634  25.027   2.248
61518W        W14414  29.768  24.432   9.873
61519W        W14415  24.766   2.349   1.552
61520W        W14416  28.572  33.747   3.167
61521W        W14417  11.972  18.892   0.160
61522W        W14418   6.726  22.186   7.263
61523W        W14419  21.583  29.167  10.219
61524W        W14420  20.442  30.666   7.611
61525W        W14421  10.489  16.501   2.981
61526W        W14422  20.239  16.977   1.106
61527W        W14423   8.680  23.127   6.874
61528W        W14424   4.135   7.767   0.980
61529W        W14425  25.708  28.506   7.839
61530W        W14426  35.227  23.646   8.301
61531W        W14427  25.331   3.072   0.531
61532W        W14428  27.514  33.960   1.825
61533W        W14429  29.118  25.928   8.945
61534W        W14430  13.894  12.558   0.690
61535W        W14431  16.755  10.122   3.104
61536W        W14432   7.912  21.248   8.319
61537W        W14433   2.872   9.637   1.057
61538W        W14434  30.451  21.422   2.293
61539W        W14435   9.378  34.453   2.473
61540W        W14436  24.675  22.776  10.062
61541W        W14437   3.051   5.912   9.004
61542W        W14438  16.850  28.446   2.899
61543W        W14439  19.692  16.356  10.143
61544W        W14440  15.860  28.825   3.613
61545W        W14441   9.077  17.796   0.157
61546W        W14442  31.775  24.700  10.255
61547W        W14443   2.782  18.311   0.606
61548W        W14444  14.353  33.270   8.422
61549W        W14445   2.202  20.064   7.935
61550W        W14446  31.406  16.819   1.688
61551W        W14447  25.664  35.460   1.000
61552W        W14448  30.812   8.834   2.674
61553W        W14449  19.123   6.014   9.508
61554W        W14450  23.736  20.247   9.497
61555W        W14451  34.027  35.625   3.082
61556W        W14452  31.450   8.069   7.780
61557W        W14453  32.222  33.515   1.083
61558W        W14454  27.037   1.556   0.141
61559W        W14455  33.115  27.803   7.355
61560W        W14456   9.606  19.856   9.850
61561W        W14457  29.190  21.746   2.350
61562W        W14458  28.197   5.100   3.630
61563W        W14459  15.180   8.047   2.562
61564W        W14460  35.373   4.750   3.684
61565W        W14461  20.480  19.044   0.923
61566W        W14462  12.681  17.068   8.425
61567W        W14463   9.242   8.935   9.950
61568W        W14464   5.874  10.495   0.370
61569W        W14465  14.574  18.054   8.543
61570W        W14466  15.797  22.333   0.297
61571W        W14467  12.584  35.702   8.381
61572W        W14468  10.890  24.660   7.022
61573W        W14469  31.857  35.832   2.334
61574W        W14470  28.147  18.123   2.542
61575W        W14471   9.714  31.532   1.160
61576W        W14472  28.362  18.268   2.120
61577W        W14473  34.824  11.880   0.839
61578W        W14474  21.326  34.999   9.177
61579W        W14475  16.704  15.813   1.864
61580W        W14476   0.214   3.793   7.400
61581W        W14477  18.915  24.433   0.580
61582W        W14478  14.775  14.665   2.607
61583W        W14479  22.852  32.384   0.438
61584W        W14480  31.738  11.075   9.282
61585W        W14481  32.807  22.114   8.941
61586W        W14482  11.060   8.478   3.029
61587W        W14483  16.478   0.608   1.781
61588W        W14484   7.225  13.902   7.760
61589W        W14485  11.622  23.173   1.976
61590W        W14486   1.541  31.715   9.843
61591W        W14487  27.231  17.218  10.136
61592W        W14488   0.228  26.254   8.833
61593W        W14489  21.512  29.379   2.484
61594W        W14490  28.736   7.146  10.161
61595W        W14491  30.328  34.180   9.640
61596W        W14492  12.342   5.856   7.595
61597W        W14493   9.556  34.613   3.001
61598W        W14494   2.661   8.600   9.959
61599W        W14495   5.039   2.970   9.894
61600W        W14496  16.168   5.467   9.089
61601W        W14497   5.576   2.502   8.950
61602W        W14498  23.087  27.840   7.877
61603W        W14499  20.855  32.019   9.285
61604W        W14500   9.935   7.980   2.581
61605W        W14501  11.585   5.736   9.972
61606W        W14502  29.667  22.804   1.271
61607W        W14503  19.933   7.107   1.584
61608W        W14504  12.230   9.507   2.420
61609W        W14505  19.503  20.130   8.251
61610W        W14506  20.940  18.171   2.862
61611W        W14507   3.862  30.013   2.261
61612W        W14508   3.573  34.550   7.609
61613W        W14509  14.868  15.191   1.435
61614W        W14510  11.249  16.586   1.729
61615W        W14511   3.532   9.641   3.488
61616W        W14512  31.132  25.130   0.609
61617W        W14513  11.163  34.216   7.949
61618W        W14514  16.320   3.367   9.293
61619W        W14515  33.078  17.958   0.481
61620W        W14516   5.063   4.153   0.919
61621W        W14517   0.125  29.234   8.079
61622W        W14518  14.086  23.481   0.109
61623W        W14519  23.361  35.117   9.531
61624W        W14520  13.078  33.204   0.091
61625W        W14521  17.367  24.237   1.141
61626W        W14522  30.567  26.497   9.752
61627W        W14523  17.375  24.263   9.534
61628W        W14524  34.035   8.492   1.057
61629W        W14525   8.248  30.463   7.620
61630W        W14526  18.166  22.829   2.293
61631W        W14527  19.203  34.688   2.942
61632W        W14528  35.338   4.209   7.484
61633W        W14529   6.625   3.695   0.828
61634W        W14530  35.905  12.717   2.862
61635W        W14531  27.193   2.690   2.586
61636W        W14532  24.248  24.426   2.654
61637W        W14533  10.001  25.677   1.083
61638W        W14534   7.407   5.230   0.578
61639W        W14535  31.459   1.113   2.388
61640W        W14536   7.197  18.277   8.770
61641W        W14537  33.090  25.129   8.381
61642W        W14538  21.325  31.762   0.110
61643W        W14539   6.415  27.122   0.286
61644W        W14540  33.698  11.034   1.242
61645W        W14541   5.025  13.902   0.613
61646W        W14542  33.396   2.963   1.475
61647W        W14543  32.187   9.712   1.767
61648W        W14544  20.826  18.870   8.546
61649W        W14545  20.426  26.231  10.236
61650W        W14546   4.225  31.985   1.118
61651W        W14547  14.315  31.839   8.813
61652W        W14548  23.252  26.167   3.068
61653W        W14549  23.419  25.893   2.369
61654W        W14550  15.542  14.060   0.666
61655W        W14551  21.554  16.363   0.214
61656W        W14552  20.525  15.908   9.994
61657W        W14553  26.341  11.743   1.002
61658W        W14554  11.072   7.206  10.214
61659W        W14555  12.257  12.323   1.435
61660W        W14556  27.739   3.252   3.904
61661W        W14557   5.259  29.855   9.312
61662W        W14558  13.124  20.009   8.486
61663W        W14559   5.320  16.028   3.156
61664W        W14560  29.430  25.508   1.185
61665W        W14561  24.683  31.799   1.184
61666W        W14562  23.976   0.075   0.103
61667W        W14563   0.840  32.373   9.613
61668W        W14564  33.734  17.584   2.206
61669W        W14565  10.904  23.399   1.625
61670W        W14566  23.457  22.309   0.264
61671W        W14567  24.932  35.401   2.981
61672W        W14568  15.429  31.210   0.519
61673W        W14569  12.035  24.827   9.096
61674W        W14570  26.111  32.902   0.908
61675W        W14571  19.118  23.245   0.749
61676W        W14572   5.678  25.505   1.233
61677W        W14573  20.565  27.457   8.885
61678W        W14574   3.429  16.101  10.052
61679W        W14575  28.392  31.488   0.556
61680W        W14576  20.763  13.143   8.381
61681W        W14577  30.269   8.428   1.188
61682W        W14578  20.589  11.806  10.025
61683W        W14579  17.410  13.445   3.419
61684W        W14580  25.160  32.938   8.324
61685W        W14581  27.410  16.994   1.382
61686W        W14582   3.890  25.789   2.356
61687W        W14583  21.064  23.752   9.403
61688W        W14584   7.450  33.579   8.930
61689W        W14585  11.455   0.007   7.046
61690W        W14586   1.263  27.010   9.260
61691W        W14587  25.515  12.385   2.136
61692W        W14588   6.248  35.018   9.493
61693W        W14589  26.126  31.263   1.947
61694W        W14590  35.746  15.117   8.990
61695W        W14591  31.995   1.338   8.276
61696W        W14592   7.480  24.377   1.414
61697W        W14593  15.435  28.446   8.292
61698W        W14594   9.575  29.518   8.955
61699W        W14595  35.181   0.648   9.492
61700W        W14596  33.876  21.383   8.153
61701W        W14597  28.590  11.924   9.188
61702W        W14598  33.305  12.723   9.269
61703W        W14599   8.346  34.185   1.221
61704W        W14600   2.767  31.076   0.552
61705W        W14601  30.693  18.102   3.102
61706W        W14602  14.525  24.056   8.882
61707W        W14603   8.008  19.069   0.066
61708W        W14604   2.991  30.639   8.999
61709W        W14605   4.160  10.010   8.466
61710W        W14606  28.783  14.579   9.114
61711W        W14607  13.307  15.770   0.691
61712W        W14608  12.334  29.924   1.384
61713W        W14609  21.111   4.277   1.571
61714W        W14610   7.122  17.672   9.436
61715W        W14611   4.819   0.542  10.203
61716W        W14612  22.784  19.473   1.251
61717W        W14613  18.835  26.771  10.249
61718W        W14614  23.424  11.885   0.317
61719W        W14615   2.751   3.647   1.785
61720W        W14616  22.258  26.106   9.773
61721W        W14617  24.098  30.340   0.278
61722W        W14618  29.160  12.443   8.394
61723W        W14619   3.645  15.295   9.774
61724W        W14620   5.945  35.265   8.503
61725W        W14621  23.317   1.399   7.256
61726W        W14622  33.669  19.322   0.786
61727W        W14623   9.188  16.409   2.378
61728W        W14624  20.010  10.022   9.752
61729W        W14625   4.896  31.868   9.275
61730W        W14626   6.873   5.986   7.663
61731W        W14627  33.155  35.077   2.725
61732W        W14628  12.035  13.909   9.416
61733W        W14629  28.390  11.457   0.184
61734W        W14630   4.385  13.263   9.586
61735W        W14631   9.137   7.139   3.460
61736W        W14632   8.326   7.219   0.697
61737W        W14633   4.270  32.459   3.255
61738W        W14634  30.519  13.921   0.038
61739W        W14635   6.976  16.083   9.600
61740W        W14636   5.650  12.837   9.839
61741W        W14637  25.270  13.696   0.440
61742W        W14638   3.374  25.468   9.798
61743W        W14639  35.622  31.038   0.734
61744W        W14640  29.464   8.895   9.348
61745W        W14641  20.291   7.228   2.191
61746W        W14642   7.450   4.238   1.737
61747W        W14643  33.863  28.741   1.924
61748W        W14644   6.421  31.846   0.385
61749W        W14645  15.092  24.224  10.164
61750W        W14646  12.142  20.409  10.182
61751W        W14647   8.008  10.549   1.990
61752W        W14648   2.444  33.917   8.087
61753W        W14649  30.642   4.471   8.913
61754W        W14650  12.637  11.235   0.920
61755W        W14651   7.996   4.256   2.834
61756W        W14652   8.373  31.170   7.029
61757W        W14653  13.286  11.622   9.688
61758W        W14654  18.486   0.797   0.171
61759W        W14655   2.824   0.461   7.462
61760W        W14656  29.259  21.597   1.425
61761W        W14657  16.508  21.306   8.649
61762W        W14658  16.946   8.933   8.475
61763W        W14659   6.754  16.798   1.437
61764W        W14660  15.788  16.620   8.982
61765W        W14661   4.280  32.706   8.967
61766W        W14662  33.544   2.072   0.496
61767W        W14663  15.547  35.127   8.469
61768W        W14664  17.212  12.971   8.543
61769W        W14665  29.206  24.253   8.236
61770W        W14666   9.876  35.466   3.213
61771W        W14667  12.482  17.198  10.179
61772W        W14668  33.049  11.565   1.945
61773W        W14669   9.289   4.971   1.381
61774W        W14670  17.799  26.481  10.321
61775W        W14671   7.734  24.756   9.599
61776W        W14672  19.932  32.962   1.119
61777W        W14673   9.990   9.491   2.650
61778W        W14674  27.623  15.677   8.639
61779W        W14675  34.850  18.102   0.908
61780W        W14676  26.545  17.963   8.675
61781W        W14677   7.423   0.478   0.022
61782W        W14678  31.493  14.485  10.233
61783W        W14679  21.837   6.752   9.844
61784W        W14680   2.385   7.503   1.652
61785W        W14681  12.486  13.459   0.897
61786W        W14682  30.795  12.909   8.110
61787W        W14683  35.804  22.892   2.443
61788W        W14684   6.603   1.416   2.881
61789W        W14685  33.842   5.384   1.732
61790W        W14686   3.651  33.892   0.048
61791W        W14687  13.484  19.300   1.659
61792W        W14688  21.544  24.351   8.284
61793W        W14689  29.452   7.120   0.385
61794W        W14690  25.805  16.621   3.641
61795W        W14691  14.533  35.523   7.739
61796W        W14692  32.386  35.242   8.667
61797W        W14693   9.973  23.716   6.795
61798W        W14694  30.863  11.772   8.934
61799W        W14695  10.922  23.603  10.027
61800W        W14696  31.266  30.258   2.633
61801W        W14697  21.173  28.447   9.812
61802W        W14698  10.931  33.066  10.276
61803W        W14699   6.435   2.467   0.135
61804W        W14700  17.888  18.571   0.123
61805W        W14701  27.227  13.707   8.397
61806W        W14702  29.951   9.262   8.405
61807W        W14703   3.510   0.469   2.951
61808W        W14704   2.013   4.794   0.202
61809W        W14705   9.928  28.818   8.914
61810W        W14706  11.825  31.866   9.248
61811W        W14707   4.476  25.609  10.169
61812W        W14708  34.287   7.456   1.107
61813W        W14709  26.703  10.661   9.054
61814W        W14710   7.494  16.905   2.790
61815W        W14711  12.122  34.805  10.234
61816W        W14712   8.641  17.671   0.408
61817W        W14713  27.738  30.499   8.462
61818W        W14714  23.815   6.251   3.305
61819W        W14715  34.032  18.376   9.817
61820W        W14716  18.937  27.852   8.424
61821W        W14717  17.554   2.827   1.725
61822W        W14718  32.580   7.530   1.505
61823W        W14719   0.130  11.869   0.796
61824W        W14720  19.664   8.049   3.269
61825W        W14721  33.411  23.988   9.579
61826W        W14722  31.588  27.284   1.032
61827W        W14723  32.179  26.950  10.293
61828W        W14724   8.957  33.560   9.590
61829W        W14725   3.237  30.592   1.969
61830W        W14726  26.516   7.132   2.108
61831W        W14727  35.141  27.329  10.305
61832W        W14728   1.737  22.100   3.484
61833W        W14729  27.635   9.116   0.676
61834W        W14730  11.094  18.855   1.856
61835W        W14731  24.049  16.189   3.856
61836W        W14732  25.382  31.904   8.664
61837W        W14733  31.475  18.934   9.509
61838W        W14734  24.571  21.860   1.529
61839W        W14735  32.856  27.185   3.933
61840W        W14736  28.847  19.631   9.418
61841W        W14737  21.498  18.289   8.193
61842W        W14738  23.553  17.400   2.654
61843W        W14739  29.175   3.679   7.900
61844W        W14740  29.827   8.921   8.077
61845W        W14741  14.880   9.350   0.311
61846W        W14742  23.530  24.796   0.041
61847W        W14743  26.769  24.614   1.461
61848W        W14744  24.664  12.078   1.914
61849W        W14745  29.244  19.899   0.118
61850W        W14746  13.478  32.051   0.088
61851W        W14747   3.964  29.345   8.946
61852W        W14748  14.281   5.972   9.237
61853W        W14749  29.023   1.955   2.166
61854W        W14750   4.054   0.456   9.266
61855W        W14751  33.317   6.977   2.120
61856W        W14752  14.695  15.311   2.408
61857W        W14753   3.717  18.070   2.344
61858W        W14754  29.161  35.206   1.531
61859W        W14755  21.650  11.944  10.304
61860W        W14756  18.579   9.731   2.901
61861W        W14757  27.341  14.118   1.447
61862W        W14758   2.829   9.115   1.335
61863W        W14759  30.964  21.943   8.556
61864W        W14760  28.268   5.887   0.677
61865W        W14761   0.400   2.606   8.768
61866W        W14762   3.714  34.117   0.549
61867W        W14763  12.984   2.040   3.135
61868W        W14764  23.710  21.562   0.785
61869W        W14765  25.649  19.236   9.254
61870W        W14766  33.807  31.425   1.841
61871W        W14767  19.245  20.658   9.638
61872W        W14768  12.621   4.956   0.980
61873W        W14769   5.620   6.044   0.581
61874W        W14770   4.412  18.803   0.749
61875W        W14771   7.742  33.557   7.158
61876W        W14772  28.970  29.232   9.886
61877W        W14773   0.456  14.911   3.221
61878W        W14774  14.720  11.601   8.709
61879W        W14775  18.499  35.230   9.952
61880W        W14776  24.701   2.223   2.881
61881W        W14777  19.520   7.809   1.794
61882W        W14778  17.119  25.348  10.048
61883W        W14779  24.184   7.206   8.322
61884W        W14780   9.728  29.605   1.594
61885W        W14781   1.568  15.433   4.217
61886W        W14782  30.769  32.400   0.387
61887W        W14783  11.982  13.018   2.001
61888W        W14784  15.256  13.789   3.049
61889W        W14785  31.766   7.640   9.210
61890W        W14786  24.457   3.189   2.991
61891W        W14787  10.695  22.914   1.626
61892W        W14788  21.805  34.215   1.190
61893W        W14789   2.842  31.707   9.689
61894W        W14790  34.898  24.755   0.522
61895W        W14791  35.315  28.685   0.648
61896W        W14792  14.492  17.501   7.924
61897W        W14793  33.379  22.891   3.728
61898W        W14794  20.703  24.031   7.574
61899W        W14795  13.492   8.681   2.528
61900W        W14796  26.466  27.277   8.643
61901W        W14797   1.767  13.294   8.707
61902W        W14798  26.856  15.857   9.287
61903W        W14799  12.856  28.695   1.883
61904W        W14800  13.825  16.429   8.561
61905W        W14801   9.723   4.236   8.819
61906W        W14802  34.884   9.433   1.574
61907W        W14803  11.915  33.679   2.070
61908W        W14804   5.359   5.758   2.626
61909W        W14805  12.324   9.379   8.661
61910W        W14806  11.299   3.350   1.911
61911W        W14807   4.100  35.413   0.910
61912W        W14808  13.439  26.639   3.450
61913W        W14809  14.698  15.591   0.576
61914W        W14810  12.684  26.222   0.188
61915W        W14811  20.684   2.644   0.562
61916W        W14812  35.786  32.543   7.744
61917W        W14813  28.588  22.155   8.831
61918W        W14814  13.616  14.572   2.224
61919W        W14815  25.907   8.090   1.285
61920W        W14816   1.128  35.231   1.542
61921W        W14817  18.159   6.421   2.086
61922W        W14818  13.076  31.167   3.123
61923W        W14819  13.479   6.968   0.794
61924W        W14820   1.886   8.751   2.662
61925W        W14821   0.668  23.931   7.952
61926W        W14822   6.194  19.654  10.120
61927W        W14823  10.005  18.842   0.949
61928W        W14824   6.589   3.435   0.410
61929W        W14825  29.005   2.311   3.649
61930W        W14826   2.497   7.159   9.705
61931W        W14827  18.498   8.440   8.712
61932W        W14828  18.232  33.786   9.082
61933W        W14829  28.898  32.287   1.939
61934W        W14830  14.946  21.606   9.745
61935W        W14831  25.357   7.649   2.678
61936W        W14832  33.315  32.151  10.061
61937W        W14833   5.444  32.493   8.065
61938W        W14834  15.446  13.812   8.988
61939W        W14835  16.954   2.489  10.310
61940W        W14836  25.026  27.032   7.151
61941W        W14837  18.253  31.851   2.522
61942W        W14838   9.474   2.634   8.600
61943W        W14839  20.653  33.300   9.582
61944W        W14840  14.975   8.017   0.342
61945W        W14841   9.021  15.901   2.228
61946W        W14842  12.923  15.775   2.851
61947W        W14843  30.233   0.475   0.011
61948W        W14844  26.430  13.659   2.282
61949W        W14845  23.680  27.899   7.546
61950W        W14846  22.565   6.079   2.775
61951W        W14847  35.754  15.413   0.086
61952W        W14848  11.519  10.704   8.594
61953W        W14849  25.285  12.086   9.905
61954W        W14850  33.977  29.438   9.335
61955W        W14851  14.074  29.260   3.163
61956W        W14852  24.313  24.213  10.158
61957W        W14853  28.509   1.363   3.399
61958W        W14854  30.536  21.414   7.466
61959W        W14855  32.321  22.871   1.956
61960W        W14856  27.806  13.111   8.043
61961W        W14857  26.253  21.695   2.842
61962W        W14858  29.050  35.014   7.508
61963W        W14859  35.179  18.265   8.998
61964W        W14860   5.986  16.011  10.305
61965W        W14861  35.643  14.580   0.578
61966W        W14862  10.714   7.361   9.744
61967W        W14863  35.876  34.040   0.473
61968W        W14864   0.757   5.567   2.808
61969W        W14865  24.259   4.003   2.390
61970W        W14866  22.870   6.215   1.133
61971W        W14867  30.706  31.175   9.630
61972W        W14868  30.732  14.086   1.197
61973W        W14869  24.014  19.125   2.732
61974W        W14870  13.453   5.506   2.459
61975W        W14871  10.388  16.871   1.067
61976W        W14872   8.585   9.425   7.028
61977W        W14873   8.134  34.624   1.499
61978W        W14874  16.780   2.061   2.382
61979W        W14875  29.163  33.002   8.496
61980W        W14876  22.881  25.032   9.767
61981W        W14877   7.725  35.203   7.893
61982W        W14878  26.804  13.740   9.897
61983W        W14879  25.260  17.786   8.144
61984W        W14880  24.195  33.632  10.053
61985W        W14881  30.601   7.526   2.744
61986W        W14882  33.079   4.745   2.598
61987W        W14883  16.992  27.384   8.761
61988W        W14884  27.772  27.922   7.684
61989W        W14885   9.917  11.242   2.832
61990W        W14886   4.988   4.076   8.189
61991W        W14887  17.129  28.986   7.858
61992W        W14888  23.469  33.622   2.691
61993W        W14889  10.602   1.229   7.855
61994W        W14890   6.482  23.012   3.648
61995W        W14891   1.950  13.255   1.848
61996W        W14892  34.778  21.609   9.085
61997W        W14893  30.544  35.503  10.261
61998W        W14894  13.557  28.468   9.562
61999W        W14895  10.051  20.436   9.572
62000W        W14896  30.396   2.110   0.376
62001W        W14897  20.178   7.414  10.020
62002W        W14898  12.931  33.207   9.257
62003W        W14899   7.976  34.137   1.757
62004W        W14900   2.332  14.160   2.852
62005W        W14901  16.191  11.265   3.249
62006W        W14902  32.200  22.044   1.090
62007W        W14903  28.451  33.229   9.656
62008W        W14904   6.267   0.172   9.697
62009W        W14905  22.917  31.825   1.423
62010W        W14906  35.867  27.106   8.233
62011W        W14907  28.108   3.482   3.549
62012W        W14908  15.771  16.588  10.060
62013W        W14909   8.946  32.351   0.332
62014W        W14910  31.937   0.476   0.757
62015W        W14911  20.129  20.743   1.095
62016W        W14912   4.235  35.274   0.451
62017W        W14913   6.678  10.849   2.567
62018W        W14914  31.098  34.315   1.456
62019W        W14915  26.865  16.630   0.716
62020W        W14916  23.900  17.701   2.438
62021W        W14917  27.879  31.224   1.626
62022W        W14918  28.238   1.797   9.557
62023W        W14919  34.885  24.001   9.082
62024W        W14920  27.415   1.112   7.790
62025W        W14921  25.151  30.028   1.411
62026W        W14922  22.958  15.323   3.040
62027W        W14923  12.019  34.508   8.930
62028W        W14924  19.470  30.569   3.560
62029W        W14925  19.805   2.109   9.267
62030W        W14926  24.513  10.057   0.247
62031W        W14927   2.935   5.329   9.513
62032W        W14928  34.058  11.720   8.682
62033W        W14929  12.350   4.873   9.608
62034W        W14930  23.765   7.498   9.046
62035W        W14931   2.111   3.593   9.053
62036W        W14932  28.885  24.321   0.550
62037W        W14933  23.951   3.325   1.152
62038W        W14934  28.569  29.537   8.935
62039W        W14935  31.836  15.303   9.038
62040W        W14936  15.155   1.169   0.177
62041W        W14937   3.622  32.670   1.924
62042W        W14938  11.183   0.286   7.395
62043W        W14939  11.697  20.280   3.302
62044W        W14940  20.060  29.184   2.382
62045W        W14941  22.151  24.524   2.133
62046W        W14942  21.807   8.332   2.690
62047W        W14943   3.994   3.275   1.541
62048W        W14944  11.700  14.325   9.269
62049W        W14945   1.778  19.950   2.514
62050W        W14946  35.885   3.306   8.552
62051W        W14947  35.811  20.298   4.168
62052W        W14948   7.099   8.607   2.465
62053W        W14949  30.869  21.189   9.539
62054W        W14950   8.664  20.183   7.393
62055W        W14951   3.945  19.343   7.972
62056W        W14952   6.391   8.161   7.896
62057W        W14953  19.658  24.726   2.171
62058W        W14954   1.155  26.769   3.343
62059W        W14955   6.402  24.745   9.850
62060W        W14956  13.048   9.430   1.931
62061W        W14957  31.491   1.152   0.192
62062W        W14958  16.257  23.298  10.002
62063W        W14959  18.210  32.407   7.047
62064W        W14960   8.163  29.376   7.619
62065W        W14961   0.697  17.140   2.990
62066W        W14962  27.037  14.807   2.050
62067W        W14963   9.609  10.342   3.726
62068W        W14964  31.773   0.862   1.967
62069W        W14965   2.333  13.543   1.586
62070W        W14966  21.086  11.837   8.713
62071W        W14967   8.511  11.107   2.734
62072W        W14968  17.994  21.602   8.053
62073W        W14969   6.335  32.940   0.098
62074W        W14970   2.712  28.806   8.734
62075W        W14971  10.717  15.546   0.869
62076W        W14972   9.673  35.159   9.957
62077W        W14973  26.808  16.130   0.788
62078W        W14974   8.397   7.090   2.522
62079W        W14975  27.734   0.799   0.169
62080W        W14976  21.574  22.129   9.078
62081W        W14977  13.725  26.879   2.088
62082W        W14978  23.411  29.107   1.627
62083W        W14979  14.851   5.358   1.045
62084W        W14980   2.207  10.080   2.674
62085W        W14981  10.656  15.642   8.882
62086W        W14982  24.824   8.518   3.085
62087W        W14983  25.735  25.371   0.152
62088W        W14984  29.799   1.337   2.315
62089W        W14985  31.362  33.222   0.733
62090W        W14986   4.278  18.993   1.659
62091W        W14987  13.861   9.933   2.756
62092W        W14988  17.430   2.581  10.149
62093W        W14989  34.076  19.616   9.304
62094W        W14990   5.403   7.686   2.253
62095W        W14991  13.655  20.121  10.244
62096W        W14992  14.299   5.525   9.509
62097W        W14993  28.814   4.687   2.228
62098W        W14994  20.499  34.186   1.714
62099W        W14995  28.939  25.442   1.324
62100W        W14996   8.361  27.070   8.056
62101W        W14997   2.029  22.933   1.814
62102W        W14998  26.830  24.598   2.663
62103W        W14999  20.556  26.891   8.966
62104W        W15000  20.251  17.380   9.237
62105W        W15001  13.308  10.162   8.172
62106W        W15002  35.083   7.720   2.979
62107W        W15003  12.405  15.682   2.803
62108W        W15004  22.516   9.813   9.153
62109W        W15005  34.249  23.257   2.238
62110W        W15006  32.871  29.637  10.032
62111W        W15007   8.920   2.135   2.078
62112W        W15008  16.128  12.205   3.341
62113W        W15009  33.016  11.504   0.581
62114W        W15010  35.206   5.029   2.433
62115W        W15011  27.181   7.254   8.400
62116W        W15012  10.624  26.275   7.631
62117W        W15013  34.571  11.296   1.740
62118W        W15014  12.091   9.200   2.797
62119W        W15015   7.686  29.243   8.299
62120W        W15016  22.628   3.997   2.709
62121W        W15017  18.970   9.179   8.537
62122W        W15018   5.723  27.649   0.682
62123W        W15019   7.875   8.130   0.185
62124W        W15020  28.904  10.599   2.577
62125W        W15021  35.516  14.223   1.223
62126W        W15022  34.812  12.620   9.959
62127W        W15023  26.877  24.924   9.997
62128W        W15024  10.467   1.922   8.158
62129W        W15025   6.944  25.309   8.147
62130W        W15026  27.220  11.013   2.913
62131W        W15027   9.923   5.848   8.456
62132W        W15028   3.166  35.459   1.838
62133W        W15029   8.441  23.326   0.870
62134W        W15030  17.505  22.634   9.419
62135W        W15031  18.085  25.192   1.285
62136W        W15032   9.537   8.198   1.578
62137W        W15033  27.559  15.108   0.281
62138W        W15034  17.955   7.009   7.404
62139W        W15035  20.860  12.257  10.220
62140W        W15036   8.297  25.883   1.342
62141W        W15037  17.346  16.661   8.115
62142W        W15038  16.603  29.021   9.622
62143W        W15039  30.353  35.325   8.690
62144W        W15040  24.558  21.831   2.022
62145W        W15041  23.265  23.376   8.985
62146W        W15042  17.741  16.006   1.956
62147W        W15043  20.091  22.953  10.044
62148W        W15044   2.931   9.909   9.488
62149W        W15045  26.883  16.604   8.764
62150W        W15046   9.736  19.403   9.597
62151W        W15047  25.367   4.863   1.394
62152W        W15048  12.116  25.470   9.670
62153W        W15049  12.842  10.356   1.573
62154W        W15050  33.303   2.331   9.434
62155W        W15051  24.154   3.749   0.661
62156W        W15052   8.154  10.474   3.199
62157W        W15053  16.244  33.785   8.174
62158W        W15054   5.555   8.186   0.564
62159W        W15055  27.759  13.047   2.179
62160W        W15056  14.292   5.817  10.204
62161W        W15057  16.072  10.503   8.828
62162W        W15058  10.283   8.667   0.259
62163W        W15059  22.531   5.918   8.267
62164W        W15060  34.278   9.944   2.305
62165W        W15061  33.557  19.890   3.123
62166W        W15062   5.295  13.416   8.977
62167W        W15063  31.639  35.371   7.286
62168W        W15064  28.797  18.480   0.478
62169W        W15065   2.799  23.357   0.215
62170W        W15066   9.937   7.083   9.048
62171W        W15067  33.808  10.512   1.070
62172W        W15068  11.942  12.001   1.042
62173W        W15069  28.310   1.426   1.914
62174W        W15070  20.140  14.698   1.891
62175W        W15071  35.002   3.578   1.576
62176W        W15072   8.420  30.444   8.386
62177W        W15073  23.374   1.067   9.985
62178W        W15074  25.997  21.247   0.061
62179W        W15075  23.978  34.790   2.680
62180W        W15076  14.586  18.872   2.423
62181W        W15077  25.333  28.818   9.122
62182W        W15078  20.214  23.096   8.891
62183W        W15079  16.060  10.439   8.262
62184W        W15080  16.946   0.018   9.135
62185W        W15081   1.411   8.224   9.861
62186W        W15082  15.513  22.183  10.230
62187W        W15083  19.620  34.294   1.294
62188W        W15084  34.349  27.872   0.947
62189W        W15085   8.511   9.858   9.315
62190W        W15086   5.200   2.327   8.701
62191W        W15087   8.167  12.975   7.828
62192W        W15088  17.011  14.128   0.314
62193W        W15089  30.020  33.989   9.266
62194W        W15090   1.052  27.826   8.418
62195W        W15091   0.385   4.295   9.675
62196W        W15092  29.930  26.616   1.193
62197W        W15093  14.777  17.983   0.159
62198W        W15094  21.034   2.939   2.020
62199W        W15095  25.265  11.987   1.311
62200W        W15096   2.715  17.714   1.259
62201W        W15097  14.473  12.580   2.853
62202W        W15098  16.630  19.288   0.350
62203W        W15099  25.599  20.390   2.554
62204W        W15100  25.265  18.030   8.906
62205W        W15101  32.742   6.495   0.497
62206W        W15102  20.165   6.602   2.095
62207W        W15103  18.931   7.780   7.463
62208W        W15104   7.814   4.676   2.636
62209W        W15105  13.738  27.248   8.001
62210W        W15106  22.650  30.184   9.866
62211W        W15107  25.071  12.400   1.091
62212W        W15108  26.807  18.593   1.047
62213W        W15109  30.802  20.016  10.183
62214W        W15110   7.304   8.873   2.994
62215W        W15111  22.566   3.417   8.150
62216W        W15112  35.864   7.822   8.095
62217W        W15113  31.168  26.267   9.541
62218W        W15114  33.326  13.038   7.879
62219W        W15115  21.248  18.441   2.075
62220W        W15116  34.218  25.560   2.913
62221W        W15117  21.089  23.357   1.151
62222W        W15118  13.729  25.188   9.372
62223W        W15119   1.022  29.588   1.775
62224W        W15120  27.251   8.818   8.492
62225W        W15121  31.245  10.765   1.746
62226W        W15122  14.689  30.212  10.269
62227W        W15123   6.224  34.269   9.442
62228W        W15124   4.337  35.572   3.140
62229W        W15125  17.033  17.089   9.599
62230W        W15126  10.398  13.661   7.642
62231W        W15127   3.200  30.853   3.337
62232W        W15128  22.936  29.898   2.341
62233W        W15129  24.283  16.428   1.869
62234W        W15130  26.906   1.080   2.198
62235W        W15131  23.295  34.483   2.263
62236W        W15132   0.733  11.367   1.517
62237W        W15133  16.249  26.036   8.169
62238W        W15134  21.573   4.025   1.269
62239W        W15135   2.864  13.531   1.619
62240W        W15136  13.575  20.815   1.552
62241W        W15137   6.847   5.458   7.626
62242W        W15138  12.456   5.380   1.920
62243W        W15139  20.671  32.159  10.055
62244W        W15140   1.964  25.298   3.798
62245W        W15141  34.338  34.621   9.206
62246W        W15142  21.441  24.341   0.925
62247W        W15143  12.828   1.849   0.970
62248W        W15144  12.166  29.052  10.327
62249W        W15145  15.411   1.119   1.119
62250W        W15146  22.435  14.575   8.096
62251W        W15147  32.911  31.841   9.725
62252W        W15148  17.146  29.966   1.346
62253W        W15149  10.871   6.742   8.832
62254W        W15150   6.876   7.845   2.370
62255W        W15151  15.349  35.762   9.135
62256W        W15152  27.279   1.745   1.448
62257W        W15153  13.128   6.599   7.734
62258W        W15154  14.195  34.146   1.785
62259W        W15155   3.308  31.995   0.729
62260W        W15156  23.736  17.919   7.569
62261W        W15157  19.543  25.559   1.107
62262W        W15158  26.913   1.154   8.134
62263W        W15159  24.332  18.543   9.954
62264W        W15160   3.647  17.613   1.525
62265W        W15161   8.709   9.220   2.801
62266W        W15162  34.007   1.585   8.326
62267W        W15163  16.583  11.306   0.931
62268W        W15164   6.127  27.159   2.528
62269W        W15165  11.504  15.774  10.153
62270W        W15166  34.769  26.053   0.011
62271W        W15167   9.249  28.154   0.242
62272W        W15168  25.411   9.810   1.443
62273W        W15169  33.434   6.864   9.388
62274W        W15170  29.382  31.198   0.375
62275W        W15171  33.287  19.625   9.632
62276W        W15172  15.670  10.298   8.692
62277W        W15173   8.268   8.174   7.253
62278W        W15174  20.925   9.348   8.686
62279W        W15175   9.379  13.050   8.349
62280W        W15176  11.263   0.462   1.035
62281W        W15177  18.513  23.727   8.001
62282W        W15178   5.167  18.976   8.013
62283W        W15179  18.303  31.136   1.371
62284W        W15180  18.619  29.106   8.395
62285W        W15181  35.945  16.681  10.245
62286W        W15182  15.249   0.658   1.247
62287W        W15183  15.676   1.200   7.895
62288W        W15184   2.389   9.226   9.407
62289W        W15185  16.692  29.955   1.540
62290W        W15186  12.705  34.977   7.984
62291W        W15187  17.928  14.154   2.624
62292W        W15188  20.692  35.851   2.759
62293W        W15189  35.760  26.198   8.728
62294W        W15190  25.385   8.170   2.650
62295W        W15191  34.427   1.330   9.259
62296W        W15192  32.196  28.693   3.654
62297W        W15193  18.055  16.609   8.540
62298W        W15194  22.539   1.282   1.049
62299W        W15195  26.984  24.041   9.685
62300W        W15196  11.417  19.376   9.456
62301W        W15197   8.467  21.328  10.090
62302W        W15198   6.893  27.405   0.486
62303W        W15199   6.325   9.159   1.896
62304W        W15200  15.975   6.083   9.214
62305W        W15201  14.648  13.730   0.254
62306W        W15202  21.682  28.019   3.494
62307W        W15203  33.685  33.857   8.449
62308W        W15204  26.558  28.203   3.151
62309W        W15205  24.765  24.758   0.093
62310W        W15206   7.966   2.591   8.016
62311W        W15207  11.823  29.901   2.813
62312W        W15208  21.860  17.040  10.093
62313W        W15209  29.281  29.526   0.452
62314W        W15210  17.124  30.238   7.828
62315W        W15211  26.389   9.551   2.697
62316W        W15212   1.933  12.209   9.440
62317W        W15213  31.697  13.007   0.077
62318W        W15214  25.255   9.936  10.212
62319W        W15215  22.596  28.559   2.676
62320W        W15216  24.784  26.206  10.337
62321W        W15217  23.031  13.694  10.043
62322W        W15218  15.853  32.985   1.427
62323W        W15219   2.737  34.776   7.784
62324W        W15220  12.482  22.896   8.536
62325W        W15221   1.608  29.740   4.016
62326W        W15222  11.532  34.567   2.167
62327W        W15223  30.974  33.815   9.933
62328W        W15224  30.868  20.892   8.934
62329W        W15225   7.487  18.268   8.343
62330W        W15226   3.952  35.396   3.474
62331W        W15227  15.661   5.615   1.526
62332W        W15228  15.213  21.091   3.035
62333W        W15229  35.939   6.466   0.775
62334W        W15230  31.930  33.061   2.695
62335W        W15231  17.543   6.847   8.637
62336W        W15232  27.953  33.438   9.102
62337W        W15233  34.660  25.781   9.296
62338W        W15234  25.305  27.715   8.145
62339W        W15235  33.740   0.595   7.340
62340W        W15236  25.716  23.524   7.749
62341W        W15237  33.848  29.282   8.914
62342W        W15238  33.132   3.325   7.771
62343W        W15239  33.523  12.822  10.227
62344W        W15240  11.976  33.346   8.783
62345W        W15241  25.042  35.600   1.969
62346W        W15242  17.266   2.373   2.047
62347W        W15243   9.645  33.374   8.145
62348W        W15244  35.638  32.234   4.287
62349W        W15245  32.952  29.044   8.870
62350W        W15246   9.541   3.994   1.826
62351W        W15247  12.536  15.221   8.756
62352W        W15248  17.600  18.379   3.516
62353W        W15249  14.005  21.544   0.307
62354W        W15250   4.432  23.525   8.751
62355W        W15251   5.489  20.766   0.794
62356W        W15252  18.492   4.535   3.250
62357W        W15253   5.272  31.957   8.789
62358W        W15254  34.430  11.249   7.078
62359W        W15255  13.516  28.013   9.284
62360W        W15256  20.440  12.343   9.948
62361W        W15257   7.321  28.354   2.392
62362W        W15258  14.399  11.291   3.150
62363W        W15259  16.834   6.200   1.698
62364W        W15260  35.562  32.061   9.855
62365W        W15261  32.865  29.836   3.885
62366W        W15262  31.939   7.576   7.844
62367W        W15263   8.605   4.830   2.152
62368W        W15264   7.931  23.532   9.962
62369W        W15265  20.092  34.675   2.806
62370W        W15266  30.101   1.123   9.653
62371W        W15267  32.915  17.607   2.441
62372W        W15268  14.029  32.733   1.422
62373W        W15269  25.788   9.844   9.212
62374W        W15270  28.122  26.222   9.417
62375W        W15271  19.843   7.760   9.871
62376W        W15272  15.291   2.600   3.691
62377W        W15273   1.511  33.817   8.889
62378W        W15274   0.683  16.694   9.045
62379W        W15275  32.022  30.586   2.174
62380W        W15276  15.709  10.883  10.095
62381W        W15277   2.429  16.128   8.511
62382W        W15278  16.952  29.083   8.702
62383W        W15279  27.580  20.590   1.683
62384W        W15280  13.573  28.326   0.534
62385W        W15281   7.507  28.109   0.030
62386W        W15282  30.237   4.422   2.254
62387W        W15283   5.554  19.377   7.236
62388W        W15284   5.622  13.764   8.268
62389W        W15285  33.065   5.472   1.112
62390W        W15286  25.346   0.554   7.730
62391W        W15287  30.165  23.934   1.471
62392W        W15288  17.629   0.730   2.634
62393W        W15289  30.147   8.569   2.691
62394W        W15290  30.448   8.463  10.173
62395W        W15291  12.672  28.950   1.506
62396W        W15292  35.892  25.540   2.941
62397W        W15293   5.748  18.590   1.627
62398W        W15294  20.032   8.397   8.771
62399W        W15295  10.122  13.670   8.961
62400W        W15296   9.350  31.276   9.321
62401W        W15297  25.288   5.626   0.810
62402W        W15298  15.483  10.499   8.196
62403W        W15299  22.844   4.311   8.003
62404W        W15300   7.225  20.754   8.379
62405W        W15301   7.475   2.549   2.890
62406W        W15302  24.211  16.549   3.351
62407W        W15303  33.161   0.778   2.969
62408W        W15304   7.314  27.297   1.735
62409W        W15305   9.190   0.630   0.093
62410W        W15306  30.131   6.367   0.657
62411W        W15307  32.853   3.687   8.151
62412W        W15308   9.594  34.363   8.948
62413W        W15309  34.132  10.792   9.758
62414W        W15310  16.958   0.521   0.337
62415W        W15311  22.820  15.988   0.972
62416W        W15312  14.057  24.866   8.442
62417W        W15313   3.037  12.135   9.485
62418W        W15314  24.788   9.793   7.472
62419W        W15315  23.859  25.746   2.913
62420W        W15316  16.433  33.536  10.080
62421W        W15317  33.116  18.137   3.569
62422W        W15318  19.379  20.362   1.587
62423W        W15319   5.388  33.165   0.344
62424W        W15320  22.136   1.283   7.969
62425W        W15321  19.400  28.158   0.038
62426W        W15322  16.705   3.281   2.467
62427W        W15323  18.890  27.780   0.806
62428W        W15324  35.583   7.880   2.884
62429W        W15325  17.887   7.585   8.331
62430W        W15326  13.279   6.941   8.691
62431W        W15327   0.710  30.330   9.904
62432W        W15328  35.391  13.561   9.423
62433W        W15329   6.106  30.366   9.817
62434W        W15330  15.446  16.704   1.760
62435W        W15331  35.708   7.607   2.006
62436W        W15332  17.684   7.894   0.269
62437W        W15333  17.832  27.455  10.281
62438W        W15334  33.114  10.483   2.638
62439W        W15335  23.252  17.441   8.144
62440W        W15336   9.028  15.660   8.308
62441W        W15337   0.183  28.333  10.207
62442W        W15338  16.650   9.926   8.882
62443W        W15339  10.656   0.931   2.586
62444W        W15340   5.414  12.076   0.694
62445W        W15341  33.069  24.000   0.530
62446W        W15342  34.340  12.307   1.251
62447W        W15343   6.958  20.672   2.923
62448W        W15344  16.394  19.269   9.026
62449W        W15345   2.304   9.105   1.534
62450W        W15346  25.013  15.039   9.941
62451W        W15347   1.245  30.614   9.140
62452W        W15348  10.190   3.217   9.003
62453W        W15349   9.182  27.232   7.980
62454W        W15350  23.126  19.805   9.639
62455W        W15351  13.717  29.904  10.131
62456W        W15352  13.279   5.660   8.891
62457W        W15353   2.388  27.950   9.011
62458W        W15354  12.494   7.683   7.984
62459W        W15355  35.896   3.789   1.139
62460W        W15356  31.741  34.265   1.255
62461W        W15357  13.199   8.622   1.102
62462W        W15358  10.798  26.946   1.480
62463W        W15359  34.054  23.067   9.405
62464W        W15360   3.690  30.636   7.681
62465W        W15361  24.468  29.247  10.166
62466W        W15362   5.726   7.776   0.807
62467W        W15363  21.830  25.015   1.547
62468W        W15364  31.136   7.880   0.327
62469W        W15365   6.689   4.276   0.499
62470W        W15366  18.472  31.297   3.527
62471W        W15367  35.173  26.029   0.460
62472W        W15368  22.277  29.810   7.638
62473W        W15369  15.797   6.679   8.308
62474W        W15370   8.185  18.095  10.028
62475W        W15371  27.068   3.943   8.904
62476W        W15372   2.597  20.840   3.521
62477W        W15373   5.611  11.889   9.360
62478W        W15374  22.909  10.443  10.076
62479W        W15375  30.061  35.137   9.986
62480W        W15376  17.087  31.255   9.839
62481W        W15377  16.410  23.362   2.281
62482W        W15378   8.905  12.837   1.269
62483W        W15379   9.079  12.398   1.918
62484W        W15380   5.190   1.271   3.263
62485W        W15381  13.311   7.043   9.270
62486W        W15382  20.275   4.637   8.119
62487W        W15383  34.030   3.857   2.797
62488W        W15384  12.687   1.568   8.971
62489W        W15385  29.920  35.527   3.158
62490W        W15386   7.161   9.007   7.338
62491W        W15387  30.431  12.762   2.252
62492W        W15388  23.845  29.553   9.533
62493W        W15389  21.732  32.402   2.219
62494W        W15390  16.761  31.736   2.787
62495W        W15391   8.077   2.259   0.472
62496W        W15392  14.330   7.305   0.562
62497W        W15393  32.586  11.876   1.885
62498W        W15394  34.448  16.036   0.207
62499W        W15395   3.441   6.836   9.683
62500W        W15396  13.598  22.747   9.913
62501W        W15397  27.253  20.516   0.776
62502W        W15398   7.868   0.411   2.342
62503W        W15399   1.783  34.587   8.518
62504W        W15400  15.960  33.359   9.926
62505W        W15401  31.160  14.605   0.453
62506W        W15402   8.513  34.985   1.742
62507W        W15403   7.285  30.976   9.149
62508W        W15404   8.719  35.237   9.090
62509W        W15405  22.514   7.413   3.288
62510W        W15406  25.718   1.343   2.459
62511W        W15407  10.632  35.409   1.203
62512W        W15408  18.968  32.911   8.795
62513W        W15409   5.320  21.147   8.800
62514W        W15410   0.695  17.330   0.873
62515W        W15411   8.999  24.203   8.582
62516W        W15412  16.967   9.037   1.264
62517W        W15413  18.731  35.389   3.501
62518W        W15414  16.060  26.846   1.029
62519W        W15415  35.984  12.135   8.228
62520W        W15416  35.652   4.171   9.179
62521W        W15417  19.376  29.524   8.671
62522W        W15418  12.677  11.818  10.329
62523W        W15419  35.705   9.310   2.781
62524W        W15420  31.486  34.914   7.509
62525W        W15421   1.113  13.184   0.059
62526W        W15422  29.284  19.042   1.788
62527W        W15423  22.264  21.106   0.782
62528W        W15424  35.331  32.618   7.064
62529W        W15425  16.830  22.268  10.007
62530W        W15426  12.300  14.127   3.052
62531W        W15427  21.463  24.242   0.082
62532W        W15428  18.222   9.519   1.686
62533W        W15429  14.407  27.007   7.319
62534W        W15430  14.993  19.951   8.680
62535W        W15431  34.704  27.944   3.002
62536W        W15432   1.567  31.435   8.243
62537W        W15433  33.807  35.291   9.740
62538W        W15434   2.401  13.198   3.994
62539W        W15435  11.329  11.968   1.271
62540W        W15436  25.410   2.424   0.010
62541W        W15437  32.482  31.034   0.341
62542W        W15438   8.896   5.239   1.878
62543W        W15439  27.809  14.183   1.299
62544W        W15440   0.147  15.234   2.372
62545W        W15441  11.455   8.107   7.795
62546W        W15442  35.869   6.215   1.253
62547W        W15443   4.636  34.657   8.738
62548W        W15444  35.692  25.528   1.148
62549W        W15445   0.576  23.414   2.039
62550W        W15446  15.997  13.186   7.988
62551W        W15447  24.118  27.011   7.899
62552W        W15448   4.624  15.473   0.150
62553W        W15449  22.243  35.645   1.193
62554W        W15450  33.712   0.089   9.258
62555W        W15451   3.177  20.963   3.170
62556W        W15452  28.380  21.375  10.197
62557W        W15453   4.812   6.069   0.514
62558W        W15454  12.253  35.898   9.510
62559W        W15455  29.581  21.870   8.644
62560W        W15456  12.609   4.222   6.785
62561W        W15457  30.083  26.638   1.737
62562W        W15458  22.065  21.879   0.332
62563W        W15459   8.479  26.086   9.371
62564W        W15460  19.113  32.005   8.532
62565W        W15461  11.660   1.264   2.916
62566W        W15462  16.427  16.165   3.527
62567W        W15463   5.741  19.649   7.626
62568W        W15464  17.325  17.092   7.843
62569W        W15465   5.480  22.287   1.093
62570W        W15466   5.006  17.499   9.775
62571W        W15467   1.019  12.034   9.787
62572W        W15468  24.829  15.916   8.780
62573W        W15469  26.319  11.732   2.113
62574W        W15470   0.588   6.614   1.305
62575W        W15471  11.795  19.964   8.317
62576W        W15472  27.363  13.292   2.155
62577W        W15473  10.766  21.743   7.713
62578W        W15474  15.026  18.937   3.153
62579W        W15475   5.549   8.924   8.602
62580W        W15476  24.067  26.628   2.920
62581W        W15477  32.527  15.385   1.901
62582W        W15478  25.581  28.321  10.316
62583W        W15479  18.951  12.775   0.588
62584W        W15480  16.236  28.882   2.616
62585W        W15481  27.521  22.370   1.258
62586W        W15482  25.267  35.131   8.069
62587W        W15483   0.025  18.455   0.037
62588W        W15484   9.930  33.413   2.247
62589W        W15485  30.037   1.451   0.112
62590W        W15486   7.159  20.693   9.934
62591W        W15487  19.241  14.957   7.794
62592W        W15488  17.786   6.011   9.671
62593W        W15489  35.189  34.165   8.841
62594W        W15490  35.164  28.641   8.855
62595W        W15491  23.840   1.166  10.239
62596W        W15492  16.697  30.790   0.324
62597W        W15493   0.420   5.789   0.675
62598W        W15494  32.803   6.880   9.232
62599W        W15495   7.547  10.554   1.897
62600W        W15496   6.028  28.464  10.149
62601W        W15497  32.460  14.304   9.132
62602W        W15498  21.539  10.328   8.229
62603W        W15499  18.360  29.649   9.383
62604W        W15500  14.141  28.612   6.897
62605W        W15501   2.803   9.311   0.683
62606W        W15502  28.791  29.852   0.387
62607W        W15503  30.664  34.333   1.641
62608W        W15504  16.803   1.736   9.795
62609W        W15505   0.169   0.751   1.999
62610W        W15506  35.467   1.723   1.164
62611W        W15507   2.531   1.894   0.242
62612W        W15508  35.710  24.264   9.546
62613W        W15509  22.511  13.986   0.757
62614W        W15510  14.706   5.573   2.486
62615W        W15511  17.573  19.814   2.566
62616W        W15512   5.643   3.287   3.660
62617W        W15513  24.057  27.918   9.886
62618W        W15514   2.884  32.227  10.266
62619W        W15515  32.348   5.697   2.592
62620W        W15516  20.032  16.129   0.945
62621W        W15517   5.900   6.634   8.390
62622W        W15518  24.504  30.624   1.515
62623W        W15519  25.009  35.931   8.598
62624W        W15520   2.852  15.706   0.380
62625W        W15521  13.732  33.788   9.805
62626W        W15522  10.554  30.220   1.802
62627W        W15523  18.825  19.098   9.931
62628W        W15524  29.602  28.951   8.384
62629W        W15525   3.835   9.953   0.198
62630W        W15526  32.724  18.118   1.906
62631W        W15527  20.487  29.993   9.438
62632W        W15528  12.209   3.890   3.013
62633W        W15529  34.631  19.217   0.747
62634W        W15530  24.908  25.741  10.336
62635W        W15531  15.294  34.782   0.632
62636W        W15532  30.010  20.970   1.511
62637W        W15533  23.926  23.953   1.679
62638W        W15534  13.165  15.442   9.611
62639W        W15535  33.802  17.341   2.662
62640W        W15536   8.008   3.685   7.957
62641W        W15537   7.808   1.535   0.142
62642W        W15538  13.142  35.670   0.227
62643W        W15539  10.819  17.575   0.752
62644W        W15540  28.510   9.902   1.552
62645W        W15541  33.920  14.255   8.015
62646W        W15542  31.143   3.471   9.958
62647W        W15543  18.089   7.788   1.186
62648W        W15544  20.909  11.337   1.328
62649W        W15545   1.006  30.071   1.785
62650W        W15546   3.884   9.043   1.663
62651W        W15547  25.792   9.645   0.591
62652W        W15548  27.611   4.262   1.908
62653W        W15549  26.962  10.550   0.838
62654W        W15550  16.774  32.744   1.580
62655W        W15551   8.522  33.419   2.018
62656W        W15552  32.698  26.498   8.507
62657W        W15553  18.407  12.377   0.428
62658W        W15554  20.015   0.379   2.493
62659W        W15555  27.447  13.294   7.829
62660W        W15556  23.748  12.897   1.664
62661W        W15557  21.343  13.305   9.629
62662W        W15558  33.815  33.207   7.231
62663W        W15559  32.157  26.754   1.921
62664W        W15560   6.749  14.126   0.865
62665W        W15561  20.423   0.258   2.946
62666W        W15562  12.860  23.824   0.568
62667W        W15563  28.585  33.611   7.059
62668W        W15564  12.303  29.347   3.282
62669W        W15565   8.592  14.414   3.271
62670W        W15566   2.669  32.645   0.318
62671W        W15567  35.077  21.169   3.065
62672W        W15568   3.247   8.673   1.175
62673W        W15569   0.795   4.242   2.497
62674W        W15570  25.194  14.397  10.124
62675W        W15571  27.465   6.137   2.011
62676W        W15572  20.589  18.907   4.007
62677W        W15573   3.451   5.737   8.704
62678W        W15574  35.550  24.180   8.133
62679W        W15575  18.150  17.393   9.123
62680W        W15576   5.135  22.099   1.445
62681W        W15577  22.697   0.199   2.744
62682W        W15578  24.009  24.337   2.138
62683W        W15579   9.088  20.695   2.168
62684W        W15580   8.712  30.191  10.112
62685W        W15581   6.389   6.723   1.999
62686W        W15582  24.178  16.491   0.490
62687W        W15583  20.089  23.397   2.536
62688W        W15584  12.404   5.566   1.263
62689W        W15585  35.501   6.755  10.224
62690W        W15586  26.049   6.790   7.571
62691W        W15587  35.426  28.848   1.089
62692W        W15588  22.123   2.927   0.083
62693W        W15589  24.418  16.866   1.576
62694W        W15590  18.716  17.812   3.303
62695W        W15591  28.260   1.140   0.463
62696W        W15592  34.711   2.827   0.179
62697W        W15593  23.701  26.270   1.004
62698W        W15594  11.974   2.228   9.904
62699W        W15595  13.050  12.600   1.069
62700W        W15596   6.263  32.994   3.237
62701W        W15597  29.357   0.903   1.927
62702W        W15598  24.537   1.567   9.226
62703W        W15599   2.771  16.401   1.645
62704W        W15600   0.878   2.597   9.007
62705W        W15601   1.683  23.435   8.574
62706W        W15602   5.972  23.755   0.193
62707W        W15603   3.996   9.107   2.684
62708W        W15604   9.697  30.669   8.560
62709W        W15605  27.394   7.320   9.179
62710W        W15606  34.410  11.624   0.626
62711W        W15607  26.177  19.083   9.220
62712W        W15608   1.423  18.461   7.868
62713W        W15609   5.676   3.928   2.699
62714W        W15610   9.175   6.026   9.006
62715W        W15611  34.949  26.560   8.992
62716W        W15612  22.309  19.598   8.909
62717W        W15613   8.482  31.554   9.654
62718W        W15614  14.270   0.872   9.123
62719W        W15615  29.127   2.298   0.216
62720W        W15616  12.784  31.051   2.620
62721W        W15617  24.306  12.231   8.601
62722W        W15618  35.917  26.639   0.893
62723W        W15619  19.219   3.530  10.103
62724W        W15620  21.094  10.954   0.947
62725W        W15621   9.784  12.846   9.567
62726W        W15622   4.988  11.556   3.007
62727W        W15623  29.125  30.259   8.796
62728W        W15624  23.920  11.153   9.184
62729W        W15625   9.459   5.220   1.799
62730W        W15626  11.080   0.020   0.825
62731W        W15627  10.435  28.564   1.156
62732W        W15628   9.983  24.525   2.104
62733W        W15629  14.156  18.469   8.644
62734W        W15630  32.577  21.608   8.863
62735W        W15631  24.455  19.132   8.498
62736W        W15632  33.198  11.189  10.002
62737W        W15633  35.676   3.276   2.027
62738W        W15634  23.557  14.787   8.314
62739W        W15635   0.459   6.909   8.732
62740W        W15636  20.193   6.190   1.784
62741W        W15637   0.857   0.179   8.310
62742W        W15638   5.517   9.444   9.378
62743W        W15639  17.553  21.229   8.822
62744W        W15640  13.917  14.607   9.328
62745W        W15641  16.081  23.816   7.695
62746W        W15642  33.141  25.663   2.691
62747W        W15643  24.007  21.920   0.863
62748W        W15644  18.699  10.680  10.132
62749W        W15645   7.516  13.340   8.423
62750W        W15646  34.966  30.223   9.920
62751W        W15647  16.309  22.019   9.914
62752W        W15648  19.163  18.069   2.108
62753W        W15649  16.945  32.202   2.611
62754W        W15650   1.727  21.609   2.222
62755W        W15651  21.443   8.705   8.814
62756W        W15652  18.805   9.803   1.076
62757W        W15653  33.199  13.360   1.044
62758W        W15654  18.467  24.173   8.267
62759W        W15655  18.781  33.051   0.755
62760W        W15656   1.854  36.007   2.296
62761W        W15657  29.420  17.920   2.280
62762W        W15658  10.960  28.483  10.322
62763W        W15659   5.057  27.917   0.235
62764W        W15660  30.669   7.336   8.234
62765W        W15661  26.043   4.720   2.438
62766W        W15662  12.975  26.870   8.294
62767W        W15663  17.807   8.614   3.196
62768W        W15664   4.989  17.325   0.264
62769W        W15665   2.266  27.534   1.186
62770W        W15666  25.056   7.931   2.362
62771W        W15667   9.191  24.189   8.078
62772W        W15668   8.425  19.913   0.589
62773W        W15669  35.295   5.322   7.464
62774W        W15670  12.542  18.715   7.393
62775W        W15671  16.591  33.984   9.879
62776W        W15672   5.899  33.944   9.241
62777W        W15673   9.707   8.055   9.124
62778W        W15674  14.737   7.624   3.207
62779W        W15675  19.114  11.536   9.878
62780W        W15676  34.898   6.737   8.833
62781W        W15677  35.767  15.019   2.146
62782W        W15678  13.165  35.903   9.742
62783W        W15679  21.822  30.791   8.888
62784W        W15680   4.835  14.816   0.657
62785W        W15681  34.020  28.949   9.638
62786W        W15682   2.856   3.810   9.393
62787W        W15683  28.339  30.991   3.214
62788W        W15684  10.508  12.894   0.183
62789W        W15685   4.222  35.209   1.786
62790W        W15686  32.861  29.115   3.128
62791W        W15687  31.307   9.936   6.740
62792W        W15688  35.358  11.282   9.481
62793W        W15689  19.781   2.599   9.168
62794W        W15690  17.486  17.680   7.794
62795W        W15691  16.353  26.399   8.611
62796W        W15692  35.700  27.874   8.133
62797W        W15693  13.031  10.256   8.803
62798W        W15694  16.855  27.411   2.758
62799W        W15695  31.634  23.392   0.096
62800W        W15696  28.907   0.840  10.076
62801W        W15697  29.624  11.516  10.114
62802W        W15698  31.750   9.252   2.660
62803W        W15699  26.606  20.948   3.373
62804W        W15700  12.156  11.916   2.810
62805W        W15701  12.892  25.082   9.336
62806W        W15702  21.179   4.200   0.548
62807W        W15703  11.720   2.927   3.000
62808W        W15704  12.621  27.319   2.361
62809W        W15705  35.047  26.006   9.872
62810W        W15706   0.527  17.774   0.796
62811W        W15707  33.189   0.667   1.252
62812W        W15708  29.744  14.466   9.302
62813W        W15709  13.017   7.749   8.223
62814W        W15710  31.277   1.014   8.564
62815W        W15711  35.947   5.326  10.147
62816W        W15712  12.971  32.231  10.173
62817W        W15713  35.393  18.982   2.967
62818W        W15714  21.956  34.373   0.211
62819W        W15715  34.855   6.262   0.508
62820W        W15716  24.939  22.665   1.718
62821W        W15717  27.968  12.616   9.936
62822W        W15718  24.071  25.952   8.503
62823W        W15719  25.148  31.535   0.271
62824W        W15720  16.072  16.815   8.471
62825W        W15721   4.762  25.267   2.612
62826W        W15722  11.294  24.060   8.137
62827W        W15723  23.307   8.690  10.025
62828W        W15724  35.009  28.923   3.664
62829W        W15725  27.592  28.591   0.613
62830W        W15726  23.783  16.366   2.895
62831W        W15727  25.547   2.959   0.083
62832W        W15728  20.968   3.550   8.437
62833W        W15729  31.417  32.227   9.679
62834W        W15730  34.802   3.296   8.288
62835W        W15731  18.205   0.458   8.319
62836W        W15732  33.128  35.760   6.697
62837W        W15733  14.003   3.595   8.762
62838W        W15734  11.231  26.529   8.276
62839W        W15735  16.198  29.741   9.182
62840W        W15736  27.436  33.308   9.779
62841W        W15737  22.285   3.382   2.228
62842W        W15738  22.785  21.016   9.411
62843W        W15739  19.554  12.353  10.000
62844W        W15740  32.246   8.040   9.870
62845W        W15741  32.256  10.577   7.632
62846W        W15742  22.327   0.130   9.664
62847W        W15743  23.336   4.638   9.580
62848W        W15744   8.867  29.095   1.421
62849W        W15745  26.474  27.675   3.361
62850W        W15746   2.028  21.223   8.850
62851W        W15747  17.188   4.439   0.576
62852W        W15748  27.392  21.516   1.661
62853W        W15749   1.279  25.436   1.821
62854W        W15750  25.208  13.290   2.053
62855W        W15751  26.527   9.224   2.266
62856W        W15752  14.260  24.541   9.803
62857W        W15753   5.227  23.839   0.586
62858W        W15754  20.792   6.696   1.255
62859W        W15755  35.186  19.864   8.086
62860W        W15756  18.412   1.886   2.893
62861W        W15757   9.321   2.052   0.175
62862W        W15758   2.531  17.586   2.472
62863W        W15759  15.436  14.055   1.570
62864W        W15760  14.779   8.775   2.318
62865W        W15761   0.896  19.509   9.792
62866W        W15762   9.653  14.346   8.546
62867W        W15763  23.577  31.907   8.260
62868W        W15764  17.253  13.732   2.088
62869W        W15765  23.428  27.417   7.801
62870W        W15766  20.653  19.849  10.209
62871W        W15767  35.476   1.759   8.282
62872W        W15768  13.083  17.510   0.902
62873W        W15769  11.589  34.497   8.102
62874W        W15770  24.027  32.092   2.566
62875W        W15771  30.774  12.209   3.648
62876W        W15772  32.123  16.515   0.569
62877W        W15773  31.907  27.108   7.876
62878W        W15774  34.906  21.886   3.808
62879W        W15775  15.084   4.869  10.120
62880W        W15776  16.429   9.878   1.640
62881W        W15777  16.685   6.555   8.917
62882W        W15778   0.851  19.535   9.127
62883W        W15779  23.585   3.406   7.523
62884W        W15780  13.112  34.494   8.020
62885W        W15781  18.670  26.127   1.574
62886W        W15782  33.954  31.542   2.685
62887W        W15783  27.809  10.316   2.214
62888W        W15784  35.655  15.438   8.539
62889W        W15785   5.445   3.767   0.119
62890W        W15786  16.697  26.165   2.182
62891W        W15787  23.367  11.350   2.184
62892W        W15788  19.050   1.974   9.344
62893W        W15789  25.597  19.019   1.572
62894W        W15790  13.492  10.475   1.105
62895W        W15791  16.701  19.983   9.052
62896W        W15792   4.387   8.579   9.264
62897W        W15793  14.048  23.155   0.965
62898W        W15794  20.764  32.481   8.163
62899W        W15795  15.536  26.118   9.913
62900W        W15796  24.374  20.685   3.136
62901W        W15797   4.211  19.488   0.316
62902W        W15798  13.773   6.682   1.578
62903W        W15799  16.450  16.058   0.798
62904W        W15800  28.673  18.800   2.814
62905W        W15801  14.664  17.605   0.456
62906W        W15802  16.837   7.691   2.811
62907W        W15803  30.475  18.314   8.605
62908W        W15804  23.701  13.489  10.117
62909W        W15805  18.685   7.750   8.385
62910W        W15806  26.757  24.168   9.189
62911W        W15807   7.155   9.048   8.605
62912W        W15808   9.899  28.263   7.446
62913W        W15809  31.433   1.829   1.830
62914W        W15810   2.223  25.656   7.633
62915W        W15811  18.672  15.027   7.777
62916W        W15812  32.577  13.540   2.012
62917W        W15813  21.334  33.699   0.170
62918W        W15814  19.880  29.295   1.913
62919W        W15815  12.173   3.774   1.713
62920W        W15816  35.173  21.635   2.395
62921W        W15817  14.574  19.489   8.835
62922W        W15818  17.537  15.667   7.454
62923W        W15819  26.739   8.319   2.112
62924W        W15820  15.290  22.835   9.509
62925W        W15821  29.875   6.640   1.804
62926W        W15822   0.123  16.877   9.774
62927W        W15823  18.430  34.105   0.879
62928W        W15824   2.063  12.279   8.566
62929W        W15825   2.273  22.985   1.254
62930W        W15826  23.227   8.925   1.558
62931W        W15827  26.535  14.339   3.572
62932W        W15828  16.134  32.753   2.354
62933W        W15829  34.236   8.710   1.647
62934W        W15830   1.200  13.574   0.396
62935W        W15831   3.432  20.229   8.472
62936W        W15832  10.839  30.582   8.638
62937W        W15833   0.180  34.819   8.239
62938W        W15834   7.207  29.604   7.614
62939W        W15835  22.159  12.950   1.809
62940W        W15836  16.364  25.707   1.540
62941W        W15837  14.114  28.581   9.391
62942W        W15838  27.812  27.596   8.373
62943W        W15839  18.915  13.969   2.503
62944W        W15840  21.801  13.490   3.119
62945W        W15841  19.004  33.881   8.404
62946W        W15842   3.157  17.418   2.899
62947W        W15843   3.599  13.306   2.236
62948W        W15844   0.468  11.118   9.210
62949W        W15845  32.891  15.518   9.695
62950W        W15846  19.683   4.276   2.301
62951W        W15847  20.043  12.830   1.108
62952W        W15848  10.237  24.780   0.436
62953W        W15849  15.887   6.140   0.579
62954W        W15850  30.154  27.650   9.794
62955W        W15851   0.409   7.888   2.510
62956W        W15852  22.085   2.432   0.772
62957W        W15853   7.481  21.103  10.257
62958W        W15854  12.349   0.421   2.450
62959W        W15855  18.130   6.364   9.309
62960W        W15856   3.564  32.825   8.365
62961W        W15857  33.164  23.265   3.141
62962W        W15858   9.538  23.372   1.959
62963W        W15859  10.269   1.292   1.588
62964W        W15860  24.161  22.048   1.321
62965W        W15861  17.644  20.429   3.305
62966W        W15862  14.152   2.161   9.734
62967W        W15863  15.086   6.272   9.016
62968W        W15864  30.217   8.433   9.417
62969W        W15865  14.889  22.500   8.555
62970W        W15866  25.937  11.588   9.638
62971W        W15867  28.687  34.509   1.037
62972W        W15868  30.459  25.917   9.849
62973W        W15869  30.537  15.723   7.973
62974W        W15870  20.388  11.190   9.096
62975W        W15871  31.915  16.608   9.597
62976W        W15872  33.483  13.672   3.817
62977W        W15873   9.683  18.157   2.699
62978W        W15874  33.660  33.803   1.117
62979W        W15875   0.612   6.352   7.346
62980W        W15876  28.506  31.330   9.161
62981W        W15877  19.763  20.277   2.264
62982W        W15878  21.159  28.247   7.128
62983W        W15879  32.083  16.025   0.424
62984W        W15880  11.613   3.829   1.734
62985W        W15881  30.557  24.101  10.317
62986W        W15882   7.454   6.932   7.313
62987W        W15883   3.243  29.822   9.605
62988W        W15884  25.970  12.292   1.504
62989W        W15885   0.327  13.856   8.228
62990W        W15886  31.783  19.623   2.514
62991W        W15887  12.889  17.247   0.504
62992W        W15888  10.957  14.185  10.102
62993W        W15889   5.949  30.185   9.285
62994W        W15890  24.767  33.941   1.176
62995W        W15891  18.366   4.468   7.933
62996W        W15892  16.019  12.659   7.986
62997W        W15893   2.850   8.108  10.064
62998W        W15894  15.543   8.733   2.031
62999W        W15895   3.408  13.647   1.889
63000W        W15896  15.248  27.396   2.887
63001W        W15897   6.695  31.450   8.364
63002W        W15898   1.876   2.434   1.970
63003W        W15899  10.312   3.571  10.270
63004W        W15900  16.218   3.054   0.074
63005W        W15901  24.853   4.677   9.412
63006W        W15902  34.051  30.990   8.553
63007W        W15903   8.518  15.773   0.059
63008W        W15904  18.539  32.623   0.772
63009W        W15905  24.318  14.373   9.848
63010W        W15906  26.122  20.945   7.969
63011W        W15907  15.535  20.144   1.259
63012W        W15908  11.412  25.725   9.371
63013W        W15909  17.960  27.214   1.014
63014W        W15910  32.295  25.025   1.871
63015W        W15911  34.492   9.643   8.893
63016W        W15912  13.453  28.622   0.107
63017W        W15913  22.104  31.732   9.287
63018W        W15914  18.929  29.305   2.192
63019W        W15915  16.923   1.519   7.593
63020W        W15916  20.697  13.053   1.263
63021W        W15917  13.017  15.444   7.828
63022W        W15918  22.056  14.519   7.432
63023W        W15919  32.022   6.526   9.432
63024W        W15920  12.613  33.629   0.845
63025W        W15921   1.701  11.850  10.284
63026W        W15922  10.240  21.311   9.749
63027W        W15923   2.403  29.834   1.373
63028W        W15924   9.700  17.199   7.919
63029W        W15925   2.282  27.510   3.512
63030W        W15926  32.674   1.208   8.244
63031W        W15927  12.726  17.822   1.202
63032W        W15928   9.881  15.039   9.645
63033W        W15929  23.472  14.647   3.282
63034W        W15930  27.010  34.838   9.861
63035W        W15931   7.256  35.061   9.974
63036W        W15932  28.602  22.755   7.773
63037W        W15933  16.144  12.600   2.477
63038W        W15934  35.161  22.910   1.874
63039W        W15935  35.095  28.057   0.334
63040W        W15936  33.193   6.520   2.163
63041W        W15937  15.418  10.990   2.705
63042W        W15938  12.916  14.740   9.825
63043W        W15939  22.888  21.039  10.283
63044W        W15940  23.209  30.658   9.875
63045W        W15941   4.595  25.171   9.441
63046W        W15942  14.451   3.835   0.009
63047W        W15943  33.386  29.565   2.753
63048W        W15944  24.774   5.494   0.794
63049W        W15945  25.363   9.897   0.779
63050W        W15946  24.363  20.791   0.991
63051W        W15947   8.277   6.571   9.562
63052W        W15948  11.692  12.622  10.161
63053W        W15949  35.243  27.127   1.500
63054W        W15950   7.825  13.619   2.472
63055W        W15951  31.561   7.626   8.182
63056W        W15952  24.305  12.195  10.105
63057W        W15953  24.738  34.711   8.826
63058W        W15954  16.627  14.430   9.458
63059W        W15955  27.663  19.993   1.172
63060W        W15956  26.462   3.997   9.189
63061W        W15957  32.760  13.368   2.935
63062W        W15958  22.097   5.153   7.637
63063W        W15959   4.027  28.806   1.023
63064W        W15960   3.261  32.050   8.637
63065W        W15961  30.866   3.749  10.270
63066W        W15962  14.972   2.964   0.916
63067W        W15963   7.025  19.874  10.181
63068W        W15964   3.747   3.676   1.226
63069W        W15965  23.458  14.740   7.823
63070W        W15966  14.716  27.404   1.306
63071W        W15967   0.920   9.799   0.881
63072W        W15968   6.653  24.464   7.448
63073W        W15969  32.494  17.680   3.287
63074W        W15970  32.789  10.692   1.483
63075W        W15971   3.084  33.689   1.323
63076W        W15972   5.277  23.240   9.706
63077W        W15973  35.918  32.034   0.452
63078W        W15974  10.593  23.565   8.749
63079W        W15975  12.850   7.905   2.550
63080W        W15976   6.639  26.001   2.349
63081W        W15977  25.332  23.750   1.101
63082W        W15978   6.154  21.076  10.115
63083W        W15979  33.163   5.540   3.228
63084W        W15980  32.976  24.737   7.598
63085W        W15981  35.934   2.170  10.152
63086W        W15982   9.857  15.171   8.615
63087W        W15983  19.038   4.202   2.440
63088W        W15984  22.258   5.166  10.274
63089W        W15985  31.628  27.745   1.390
63090W        W15986   9.587   1.533   2.484
63091W        W15987  28.101  23.663   7.541
63092W        W15988   2.946  28.392   2.158
63093W        W15989  30.415  11.836   1.263
63094W        W15990  15.210  13.760   0.234
63095W        W15991  19.843  14.880   0.085
63096W        W15992  28.700   2.530   7.716
63097W        W15993  19.645   0.760   1.790
63098W        W15994   9.552  27.505   9.033
63099W        W15995  13.371  35.168   8.655
63100W        W15996  28.823   1.715   3.210
63101W        W15997  31.785  19.687   9.795
63102W        W15998  10.863  26.013  10.237
63103W        W15999  27.064  31.532   1.241
63104W        W16000  24.770  30.764   0.690
63105W        W16001  17.911  29.256   9.375
63106W        W16002  24.887  20.134   2.791
63107W        W16003  32.801  25.348  10.308
63108W        W16004  32.453   2.789   3.505
63109W        W16005  34.000  18.023   3.816
63110W        W16006  28.247  12.182   0.499
63111W        W16007  12.189  32.886   0.423
63112W        W16008  24.995   1.034   1.555
63113W        W16009  33.764  14.012   1.256
63114W        W16010  16.826  22.321   1.401
63115W        W16011  32.670   8.463   3.018
63116W        W16012  14.719  16.111   7.707
63117W        W16013  36.011  19.126   8.347
63118W        W16014  16.288  35.491   9.129
63119W        W16015  31.399  24.022   8.460
63120W        W16016  32.347  29.166   1.885
63121W        W16017  10.493  32.879   8.992
63122W        W16018   8.353   2.731   8.666
63123W        W16019  14.431  30.862   3.565
63124W        W16020  25.573  32.643  10.206
63125W        W16021  31.982  35.870   0.489
63126W        W16022  35.723  17.738   1.836
63127W        W16023  20.858   0.935   2.229
63128W        W16024   4.107  30.644   0.331
63129W        W16025   2.520  34.353  10.096
63130W        W16026  12.885   5.352   1.121
63131W        W16027  10.155  24.810   0.974
63132W        W16028   2.386   2.947   7.404
63133W        W16029  10.403   5.573   1.188
63134W        W16030  31.278  23.539   0.810
63135W        W16031  21.524   9.774   2.995
63136W        W16032  22.054   1.172   9.164
63137W        W16033   2.055   4.101   9.237
63138W        W16034  32.780  22.354   9.392
63139W        W16035   9.265  17.815   8.143
63140W        W16036  23.425  26.234   7.127
63141W        W16037  33.786   4.072   0.912
63142W        W16038  28.942  25.546   8.323
63143W        W16039   1.955  26.409   2.475
63144W        W16040  10.540  25.396   0.488
63145W        W16041  28.406  11.248   9.248
63146W        W16042   0.629  17.116   8.775
63147W        W16043   4.724  22.157   8.689
63148W        W16044   5.403   9.749   3.483
63149W        W16045   0.049  12.042   3.578
63150W        W16046  30.678   1.937   9.037
63151W        W16047   0.382  30.610   8.072
63152W        W16048  27.288  26.730   7.687
63153W        W16049  17.147  26.229   8.066
63154W        W16050  35.802   2.646   8.038
63155W        W16051  12.585  27.474   0.387
63156W        W16052  11.297  17.629   9.702
63157W        W16053  24.045  13.990   2.314
63158W        W16054  14.319  23.555   9.744
63159W        W16055   9.754  20.020   2.200
63160W        W16056  12.330  10.307   9.267
63161W        W16057  28.001  25.245   0.230
63162W        W16058  31.392   7.922   3.328
63163W        W16059  32.719  24.666   3.810
63164W        W16060   6.021  24.039   9.474
63165W        W16061   2.395  13.100   0.113
63166W        W16062  10.329  15.366   2.043
63167W        W16063   2.004  11.705   8.071
63168W        W16064  19.224  15.340   8.406
63169W        W16065   4.782  13.402   9.225
63170W        W16066  14.014  24.390   8.812
63171W        W16067  31.085   3.471   9.445
63172W        W16068  34.331   3.788   9.758
63173W        W16069  28.763  18.752   1.751
63174W        W16070  35.265  12.303   9.938
63175W        W16071  15.158  35.010   3.297
63176W        W16072  34.450  18.556   0.143
63177W        W16073  23.851  30.785   2.534
63178W        W16074  11.399  32.734   2.274
63179W        W16075  21.920   3.438  10.007
63180W        W16076  22.082   6.004   0.968
63181W        W16077  20.138   7.888   2.892
63182W        W16078   3.523   4.035   9.908
63183W        W16079  18.300  26.857   8.839
63184W        W16080  13.473  11.363   2.285
63185W        W16081  27.935  23.562   0.559
63186W        W16082  35.713   0.647   3.181
63187W        W16083  13.139   6.215   1.564
63188W        W16084   0.448   4.293   7.706
63189W        W16085  10.453   6.181   1.988
63190W        W16086   6.884  31.798   9.732
63191W        W16087   1.659  20.634   9.300
63192W        W16088   2.185  16.066   8.084
63193W        W16089  29.727  19.632   7.470
63194W        W16090  23.556  30.624   0.126
63195W        W16091   0.493  29.843   7.331
63196W        W16092  17.276  11.251   1.446
63197W        W16093  15.788   4.067   2.316
63198W        W16094  30.702   6.004   9.522
63199W        W16095  26.110   9.389   2.087
63200W        W16096   0.312  35.391   1.596
63201W        W16097   0.336  19.783   0.182
63202W        W16098  12.609  19.483   1.680
63203W        W16099  25.847  18.071   2.586
63204W        W16100  14.566  33.183   1.198
63205W        W16101  29.113   5.781  10.221
63206W        W16102   9.222  30.909   2.060
63207W        W16103  13.484  19.699   2.150
63208W        W16104  12.671  29.467   7.687
63209W        W16105   5.646  15.215   7.558
63210W        W16106  28.615  27.535   2.283
63211W        W16107   5.543  17.878   0.511
63212W        W16108   3.207   2.724   1.850
63213W        W16109  28.036  34.572  10.007
63214W        W16110  30.254  33.598   9.520
63215W        W16111  10.250  16.510   8.763
63216W        W16112  28.530  20.128   8.583
63217W        W16113  25.572  30.732   7.731
63218W        W16114  10.024  27.618   9.635
63219W        W16115   7.347   5.518   8.016
63220W        W16116  16.586   9.858   9.821
63221W        W16117  34.188  22.047   9.172
63222W        W16118  26.115  31.312   7.172
63223W        W16119  22.293  13.074   1.112
63224W        W16120  27.832  33.759   9.505
63225W        W16121  25.734  35.758   1.382
63226W        W16122  23.564   6.827   0.824
63227W        W16123  21.632  27.148   2.161
63228W        W16124   9.972  10.821   8.980
63229W        W16125  16.791  20.996   1.572
63230W        W16126  35.588   7.870   9.288
63231W        W16127  16.953  21.387  10.110
63232W        W16128  33.485  10.214   3.078
63233W        W16129  31.157  14.146   2.200
63234W        W16130  18.336   7.373   8.336
63235W        W16131   6.211  28.817   9.821
63236W        W16132   8.294   9.302   0.944
63237W        W16133  27.759  29.633   2.769
63238W        W16134  19.370  28.233   3.523
63239W        W16135  35.923  29.781   9.216
63240W        W16136  30.779  25.253   0.934
63241W        W16137   1.701  31.325   2.178
63242W        W16138   8.815  25.319   1.243
63243W        W16139  24.321  22.827   9.026
63244W        W16140   5.997  17.764   0.258
63245W        W16141   9.205  20.346   1.619
63246W        W16142  13.739  33.871   2.175
63247W        W16143  28.655  31.359   1.930
63248W        W16144  20.640  20.672   1.876
63249W        W16145  19.159  23.435   9.780
63250W        W16146  29.286  12.415   8.906
63251W        W16147  26.362  29.863   0.184
63252W        W16148  25.880   4.708   1.396
63253W        W16149  19.262  16.021   9.985
63254W        W16150  22.406  22.439   8.550
63255W        W16151   5.431  10.931  10.312
63256W        W16152  27.310   4.042   0.133
63257W        W16153  13.552  25.899   2.218
63258W        W16154  11.322  29.773   3.148
63259W        W16155   7.835  11.737   0.296
63260W        W16156  28.999   3.348  10.300
63261W        W16157  30.725  33.409   9.767
63262W        W16158  30.173  30.587   0.224
63263W        W16159   9.230   8.887   8.437
63264W        W16160  15.328  18.118   8.377
63265W        W16161   0.721  24.363   2.332
63266W        W16162  22.810   3.322   2.515
63267W        W16163  17.372  22.116   9.986
63268W        W16164  32.204   2.255   9.336
63269W        W16165  35.758  12.201   1.105
63270W        W16166  13.031   2.543  10.007
63271W        W16167  35.153  29.084   2.711
63272W        W16168   8.073  13.681   3.270
63273W        W16169  34.161  35.303   0.004
63274W        W16170   5.159  23.555  10.149
63275W        W16171  17.732   2.096  10.140
63276W        W16172  25.060   2.654   9.249
63277W        W16173   3.216  29.499   8.172
63278W        W16174   5.242  35.833   8.795
63279W        W16175  21.969  15.642  10.174
63280W        W16176   6.983   6.308  10.046
63281W        W16177  23.326  11.533   1.509
63282W        W16178  18.211  12.226   9.426
63283W        W16179   0.929   4.077   8.414
63284W        W16180   6.619  25.144   8.463
63285W        W16181  22.576   9.752   8.675
63286W        W16182   6.163  32.417   3.413
63287W        W16183   8.710   4.996   0.350
63288W        W16184   5.375  20.102   8.902
63289W        W16185   1.536   7.681   8.882
63290W        W16186  21.068  20.668   2.150
63291W        W16187  27.432  17.725  10.219
63292W        W16188  22.046   2.447   8.714
63293W        W16189  32.270  34.380   1.613
63294W        W16190  21.311   1.626   0.016
63295W        W16191  10.439   0.397   1.286
63296W        W16192  19.602   5.249   9.929
63297W        W16193  12.509   5.278   9.326
63298W        W16194  35.905   7.793   0.782
63299W        W16195  22.912   9.408   8.722
63300W        W16196  20.457   3.844   9.115
63301W        W16197  29.864  16.546   7.609
63302W        W16198  11.799  12.536   1.716
63303W        W16199  30.360  35.345   9.208
63304W        W16200  11.544  25.954   1.009
63305W        W16201  29.886  27.401   0.146
63306W        W16202   8.131  30.639   3.093
63307W        W16203  28.715   9.624   9.335
63308W        W16204   5.573  26.000   9.780
63309W        W16205  17.191  24.786   9.601
63310W        W16206  13.645  29.189   3.465
63311W        W16207  13.470  14.560   1.260
63312W        W16208  30.230  31.122   8.467
63313W        W16209  35.343  25.808   8.697
63314W        W16210  35.605  15.801   9.364
63315W        W16211  18.419   9.142   2.049
63316W        W16212   6.605  13.599   7.346
63317W        W16213  13.888  22.606   9.195
63318W        W16214  28.814  11.293   3.259
63319W        W16215   2.018   2.265   8.132
63320W        W16216  19.698  31.597   9.076
63321W        W16217  19.146  18.907   9.574
63322W        W16218  36.010  22.680   3.720
63323W        W16219  32.550   3.229   8.341
63324W        W16220  22.467   8.522  10.284
63325W        W16221  17.203  11.638   2.784
63326W        W16222  21.076  11.427   9.736
63327W        W16223  10.739   0.793   9.741
63328W        W16224  12.566  21.851   3.698
63329W        W16225   5.844  23.496   1.071
63330W        W16226  30.007  16.150   0.516
63331W        W16227  21.072  17.984   8.364
63332W        W16228  22.036  28.586   7.252
63333W        W16229  15.401  19.708   8.377
63334W        W16230  23.756   5.390   2.043
63335W        W16231   0.895  34.724   0.174
63336W        W16232  31.151  30.546   0.558
63337W        W16233   7.876   4.677   0.991
63338W        W16234  22.313   8.226   2.120
63339W        W16235  31.054   1.619   2.647
63340W        W16236  12.404   6.137   9.307
63341W        W16237  17.238   7.403   1.951
63342W        W16238  17.474  26.979   2.267
63343W        W16239  12.179  14.992   7.205
63344W        W16240   3.578  10.102   9.615
63345W        W16241   4.947  15.668   3.525
63346W        W16242   2.573  26.485   1.468
63347W        W16243  10.409  30.614   3.063
63348W        W16244  15.960   0.644   1.763
63349W        W16245   1.946  14.974   2.920
63350W        W16246   2.133   8.658   9.678
63351W        W16247  26.609  32.303   8.576
63352W        W16248   9.475  18.394   8.654
63353W        W16249  15.087  28.792   1.610
63354W        W16250  35.150  21.284   1.767
63355W        W16251  22.382  15.931   0.120
63356W        W16252  22.716   3.552   9.046
63357W        W16253  22.063  14.814   9.518
63358W        W16254   4.297  28.839   3.538
63359W        W16255  29.483   4.139   3.880
63360W        W16256  28.884  24.905   7.128
63361W        W16257  30.209  21.949   2.312
63362W        W16258  29.510  17.788   1.643
63363W        W16259  35.286   8.438   0.934
63364W        W16260  15.407   0.167   9.447
63365W        W16261   7.871  28.080   1.578
63366W        W16262  28.750   2.375   9.127
63367W        W16263  35.772  33.259   3.695
63368W        W16264  19.516  17.488  10.259
63369W        W16265   8.879  23.422   0.034
63370W        W16266  20.123   0.160   9.708
63371W        W16267  19.359   6.712   3.033
63372W        W16268   2.478   1.343   0.838
63373W        W16269  21.610  13.927   0.512
63374W        W16270   9.881  27.528   2.431
63375W        W16271  10.244  15.784   0.367
63376W        W16272  32.250   6.777   9.096
63377W        W16273  30.364   2.820   0.175
63378W        W16274  30.266  32.570   8.852
63379W        W16275  35.825   0.340   8.743
63380W        W16276  10.438  25.317   7.282
63381W        W16277  13.266   8.649   8.342
63382W        W16278  33.878  30.011   9.385
63383W        W16279   0.854  33.476   9.989
63384W        W16280  28.072   9.204   9.699
63385W        W16281  29.445   0.886   0.105
63386W        W16282   0.211  22.190  10.207
63387W        W16283  10.653  32.337   8.441
63388W        W16284  19.633  12.394   7.553
63389W        W16285   7.357  28.754   8.182
63390W        W16286  21.986  29.386   7.634
63391W        W16287  11.110  35.640   1.225
63392W        W16288  34.327  11.163   0.719
63393W        W16289   5.755  11.793   2.256
63394W        W16290  26.754   5.816   1.660
63395W        W16291  28.490  19.266   1.848
63396W        W16292  25.254  11.079   8.702
63397W        W16293  19.224  21.086   3.466
63398W        W16294  15.831  32.628   1.898
63399W        W16295  10.795   1.123   7.358
63400W        W16296  28.381  26.871   8.049
63401W        W16297  28.239  21.961   2.151
63402W        W16298  15.879  15.914   1.576
63403W        W16299  26.736  35.933   1.535
63404W        W16300  29.653  35.422   1.719
63405W        W16301  22.537   0.241   7.464
63406W        W16302  24.278  28.714   9.989
63407W        W16303  20.482   0.572   8.288
63408W        W16304  16.142  13.865   9.687
63409W        W16305  29.000  20.374   2.292
63410W        W16306   0.465   4.002   0.396
63411W        W16307  15.228  34.505   8.216
63412W        W16308  28.683  23.574   8.286
63413W        W16309  26.439  17.381   8.322
63414W        W16310  15.878   2.174   8.635
63415W        W16311  23.650  26.892   2.054
63416W        W16312  22.632  33.917   2.573
63417W        W16313   9.977  20.581   8.263
63418W        W16314  13.017  23.083   8.732
63419W        W16315  18.094   1.525   1.500
63420W        W16316  24.713   8.944   2.138
63421W        W16317   9.725  30.900   1.832
63422W        W16318  32.773  34.298   1.393
63423W        W16319  26.203   7.273   9.975
63424W        W16320  32.156  14.991   1.156
63425W        W16321  25.881  29.324   7.824
63426W        W16322  31.840  12.825   7.571
63427W        W16323   1.865   7.443   1.842
63428W        W16324  34.097   7.926   9.834
63429W        W16325  24.177  27.437   9.905
63430W        W16326   9.076  16.236   8.360
63431W        W16327  23.339  31.110   0.193
63432W        W16328  24.077   9.866   8.952
63433W        W16329   4.808  31.251   1.203
63434W        W16330  21.445  18.276   2.599
63435W        W16331  15.092  19.981   9.163
63436W        W16332  15.890  19.188   0.955
63437W        W16333  20.821  14.504   1.349
63438W        W16334  29.261   9.586   9.991
63439W        W16335   0.058   4.457  10.090
63440W        W16336  25.914  18.547  10.152
63441W        W16337  15.551  18.275   3.266
63442W        W16338  25.538  16.315   9.225
63443W        W16339   2.927  13.580   9.297
63444W        W16340  13.804  34.995   0.379
63445W        W16341  11.158  11.169   7.727
63446W        W16342  34.164   3.350   7.061
63447W        W16343  18.256   4.180   0.559
63448W        W16344  10.244  15.175   8.897
63449W        W16345  22.431   9.802  10.022
63450W        W16346  20.494  17.329   7.797
63451W        W16347   5.224   9.053   1.370
63452W        W16348  27.164   1.756   0.656
63453W        W16349  22.477   2.723   7.281
63454W        W16350  28.810  12.011   2.402
63455W        W16351   0.060  17.327   9.491
63456W        W16352  29.879   8.725   0.986
63457W        W16353  11.396  28.134   2.365
63458W        W16354  24.792  16.691   9.410
63459W        W16355   9.765  26.735   8.506
63460W        W16356  13.577   2.655  10.275
63461W        W16357  29.819   3.255   8.925
63462W        W16358   6.737  23.992   1.036
63463W        W16359  29.706   8.648   1.805
63464W        W16360   1.351  12.893   0.351
63465W        W16361  33.464   5.915   3.379
63466W        W16362  17.106  32.951   0.536
63467W        W16363  33.043  29.094   2.636
63468W        W16364  18.305  31.107   1.876
63469W        W16365  30.757  10.371   0.746
63470W        W16366   0.328  34.055   0.652
63471W        W16367  17.163  21.710   7.966
63472W        W16368  21.429  31.288   2.566
63473W        W16369  13.788  32.478   8.085
63474W        W16370  15.116  16.506   0.801
63475W        W16371  10.564   2.862   7.882
63476W        W16372  21.988  16.809   7.628
63477W        W16373   9.482  32.045   0.496
63478W        W16374   9.677  23.256   9.088
63479W        W16375  19.317   7.326   0.512
63480W        W16376  18.631  24.717  10.133
63481W        W16377  20.708   3.853   1.684
63482W        W16378   2.669  29.388   8.216
63483W        W16379  12.924  26.997   2.069
63484W        W16380  15.635  18.400   0.394
63485W        W16381   7.236  26.819   9.626
63486W        W16382  23.113  13.642   8.739
63487W        W16383  26.054  23.663   8.369
63488W        W16384  21.920  29.045   3.543
63489W        W16385   1.934  23.608   2.872
63490W        W16386  10.048  11.616  10.242
63491W        W16387  19.725  23.866   1.256
63492W        W16388  19.057  20.507   2.597
63493W        W16389  29.104  22.406   1.051
63494W        W16390  19.759  22.275   1.349
63495W        W16391  23.641  26.802   2.554
63496W        W16392  19.593  15.967   0.871
63497W        W16393   1.784   4.341   8.470
63498W        W16394   7.682   2.201   3.247
63499W        W16395   9.005  32.232   1.700
63500W        W16396   2.790   5.097   7.432
63501W        W16397   1.440   2.714   7.858
63502W        W16398  34.694   2.807   8.489
63503W        W16399  30.271  17.156   7.221
63504W        W16400  17.763   0.777   8.408
63505W        W16401  18.758  14.431  10.327
63506W        W16402  14.837  20.011   2.625
63507W        W16403  17.976  34.198   7.718
63508W        W16404   5.374   1.943   9.070
63509W        W16405  24.781  30.320   0.367
63510W        W16406  17.168  30.965   9.006
63511W        W16407  12.717  14.378   2.921
63512W        W16408  24.171   9.741   3.193
63513W        W16409  29.004  34.937   3.506
63514W        W16410   4.518   0.652   9.304
63515W        W16411  16.383  24.358   9.402
63516W        W16412  19.129  35.784   9.866
63517W        W16413  14.448   8.329   9.253
63518W        W16414  17.761  31.145   1.211
63519W        W16415  18.342  20.486   0.213
63520W        W16416  19.189  15.992   8.750
63521W        W16417  30.192  29.549   0.260
63522W        W16418  20.050   6.385   0.748
63523W        W16419  15.349  34.585   7.224
63524W        W16420  32.410  15.955   9.910
63525W        W16421   4.878  13.281   1.222
63526W        W16422  16.893  13.574   8.885
63527W        W16423  14.714   5.059   2.527
63528W        W16424  17.984  28.978   2.206
63529W        W16425  13.087   3.679   3.455
63530W        W16426  16.546  33.868   1.479
63531W        W16427  32.304   6.301   0.568
63532W        W16428  33.161  17.456   1.226
63533W        W16429  13.750  19.735   0.228
63534W        W16430  31.182  16.489   3.059
63535W        W16431  13.969  35.320   2.494
63536W        W16432   0.877  25.858   2.570
63537W        W16433   2.297  29.304   7.468
63538W        W16434  11.366   8.855   8.986
63539W        W16435   5.236  30.877   1.121
63540W        W16436   8.595  34.595   0.356
63541W        W16437  32.576  24.357   8.288
63542W        W16438  10.125  34.523   9.478
63543W        W16439   8.565   3.162   0.482
63544W        W16440  30.092  34.293   1.460
63545W        W16441  12.222  15.520   1.609
63546W        W16442  19.672  14.829   1.833
63547W        W16443   8.489  22.879   0.639
63548W        W16444  35.323   9.113   0.175
63549W        W16445  25.582  12.377   9.486
63550W        W16446   5.730   8.164   8.820
63551W        W16447   2.009  13.249   9.122
63552W        W16448  31.882   6.185   0.370
63553W        W16449  23.531   3.587   1.645
63554W        W16450   3.506   0.256   0.787
63555W        W16451   3.485  28.112   0.145
63556W        W16452   9.518  13.747   8.947
63557W        W16453  26.064   7.897   2.687
63558W        W16454  14.462  12.386   9.288
63559W        W16455   4.194  16.500   2.773
63560W        W16456  18.954  27.421   3.091
63561W        W16457  11.625  27.904   9.524
63562W        W16458   5.189   5.254   9.757
63563W        W16459  28.400   5.431   9.934
63564W        W16460  34.948  29.789   9.338
63565W        W16461  32.891  23.404   7.644
63566W        W16462  22.853  27.817   0.713
63567W        W16463   0.704  25.607   1.098
63568W        W16464  32.127  10.565   3.242
63569W        W16465  26.554  31.863   9.785
63570W        W16466  19.722  14.361   9.767
63571W        W16467  13.710   3.272   7.648
63572W        W16468   5.377  10.413   4.057
63573W        W16469   2.202  18.448  10.212
63574W        W16470   4.198  30.569   3.021
63575W        W16471  31.196   4.177   8.316
63576W        W16472  34.908  28.230   1.753
63577W        W16473   2.423  29.434   2.857
63578W        W16474   3.724  27.408   3.143
63579W        W16475   9.164  11.141   7.009
63580W        W16476  10.238  32.572   1.398
63581W        W16477   2.390   9.572   1.268
63582W        W16478  30.672  25.712   1.902
63583W        W16479   3.346   4.897   1.679
63584W        W16480  17.398  15.157   2.063
63585W        W16481  30.330  28.832   8.876
63586W        W16482  16.471  31.445   1.849
63587W        W16483  22.800  22.673   1.613
63588W        W16484  11.671   6.257   8.453
63589W        W16485  20.327  22.233   9.469
63590W        W16486   4.530  15.879   3.709
63591W        W16487  32.209   9.550   9.415
63592W        W16488  14.197  22.554   0.348
63593W        W16489  22.993  28.665   7.916
63594W        W16490  21.838  30.112   9.643
63595W        W16491  33.834  31.173   2.314
63596W        W16492  26.052  24.443   8.347
63597W        W16493   3.647  20.328   9.121
63598W        W16494  34.456  35.472   7.526
63599W        W16495  13.307  15.581   0.242
63600W        W16496  22.370  34.685   1.754
63601W        W16497  28.489   8.860   9.463
63602W        W16498  17.912  23.303   3.284
63603W        W16499  22.179   3.236   1.193
63604W        W16500  15.393  33.428   7.794
63605W        W16501   8.181  15.880   0.603
63606W        W16502  25.474  19.993   1.337
63607W        W16503  31.590  34.223   9.217
63608W        W16504  18.478  32.031   7.290
63609W        W16505   3.787  12.356  10.154
63610W        W16506  21.132  24.311   0.457
63611W        W16507  13.828  33.649   3.495
63612W        W16508  31.321   0.420   9.379
63613W        W16509   8.250   0.760   3.519
63614W        W16510   7.917  34.037   0.928
63615W        W16511  28.251   2.338   7.817
63616W        W16512  16.447  18.768   8.952
63617W        W16513   9.071  10.011   9.189
63618W        W16514   5.669  23.259   2.145
63619W        W16515  18.757   3.017   3.451
63620W        W16516  32.061  14.773   2.341
63621W        W16517  14.208  17.861   2.849
63622W        W16518  34.036  31.297   3.174
63623W        W16519  20.246  10.428   8.139
63624W        W16520  10.567  23.854  10.244
63625W        W16521  32.609  20.728   1.988
63626W        W16522  33.209  32.963   8.860
63627W        W16523   0.119  27.821   0.052
63628W        W16524  27.830   7.730   0.611
63629W        W16525  12.449  35.462   9.781
63630W        W16526   0.639  12.203   0.691
63631W        W16527  10.002   4.400   0.450
63632W        W16528   2.865  27.934   9.186
63633W        W16529  27.582   7.201   8.048
63634W        W16530  22.195  24.353   1.666
63635W        W16531  23.414   4.404   2.335
63636W        W16532   6.464  13.452   3.425
63637W        W16533   5.294  35.017   1.476
63638W        W16534  29.119  21.305   2.028
63639W        W16535   2.876  17.408   9.402
63640W        W16536   4.713  17.228  10.098
63641W        W16537  20.333  10.110   3.276
63642W        W16538  21.426  29.350   1.014
63643W        W16539   8.545  26.712   1.522
63644W        W16540  11.455   3.175   9.559
63645W        W16541  25.488   6.089   0.980
63646W        W16542  24.836  27.584   2.596
63647W        W16543  21.375   1.150   9.796
63648W        W16544  31.864   5.227   8.655
63649W        W16545  30.200  19.788   7.520
63650W        W16546  18.101  34.164   1.935
63651W        W16547  30.541   7.006   0.048
63652W        W16548  15.810   9.635   2.393
63653W        W16549   7.358  25.005   9.329
63654W        W16550  15.975  14.666   1.202
63655W        W16551  32.903  18.923   7.963
63656W        W16552  21.673  10.828   8.978
63657W        W16553  27.858  32.004   7.338
63658W        W16554  24.562  10.985   0.909
63659W        W16555  33.545   4.014   7.088
63660W        W16556  10.718  15.969   1.147
63661W        W16557  23.412   1.394   9.039
63662W        W16558  23.818   0.242   8.318
63663W        W16559  21.055  10.815   1.574
63664W        W16560  30.547   1.449   9.818
63665W        W16561   9.978  19.839   9.271
63666W        W16562   3.344  20.943   2.271
63667W        W16563   0.276   7.210   7.853
63668W        W16564   0.839  24.896   2.320
63669W        W16565  18.103   0.372   7.675
63670W        W16566  32.314  11.626   9.957
63671W        W16567  15.170  23.692  10.161
63672W        W16568   6.180   1.351   9.291
63673W        W16569  20.737  12.067   7.890
63674W        W16570  13.291  13.466   9.601
63675W        W16571  21.156  10.529   0.663
63676W        W16572   2.861   4.816   2.405
63677W        W16573  15.956  30.376   1.875
63678W        W16574  14.469   1.370   0.417
63679W        W16575  12.975   6.803   0.885
63680W        W16576   8.405   4.995   7.864
63681W        W16577   7.272  28.418   2.904
63682W        W16578   7.180  19.575   9.225
63683W        W16579  18.187  29.065   0.074
63684W        W16580   6.699  32.134   1.143
63685W        W16581   4.991  35.853   1.551
63686W        W16582   6.778  32.978   8.693
63687W        W16583   6.091  18.859   1.355
63688W        W16584   2.828  18.207   7.625
63689W        W16585   3.602  21.868   9.672
63690W        W16586  27.290   3.804   2.750
63691W        W16587  35.043  13.087   9.509
63692W        W16588   7.901  18.148   8.064
63693W        W16589   9.672  28.149  10.274
63694W        W16590  12.798  22.869   2.015
63695W        W16591  27.440  28.019   7.330
63696W        W16592  10.725  12.525   3.070
63697W        W16593  15.407   8.922   3.035
63698W        W16594  33.264  10.813   2.280
63699W        W16595  28.309   6.329   0.965
63700W        W16596  25.493  34.019  10.142
63701W        W16597  16.381   3.813   8.444
63702W        W16598  15.753   5.270   3.650
63703W        W16599   2.248  11.074  10.131
63704W        W16600  27.625  12.377   9.078
63705W        W16601   8.471  24.907   8.382
63706W        W16602  15.710  35.800   3.308
63707W        W16603  27.138   3.132   0.255
63708W        W16604  35.921  13.185   2.798
63709W        W16605  28.708  18.912   7.115
63710W        W16606   5.048  15.189   1.053
63711W        W16607  17.386  20.293   9.201
63712W        W16608  12.080  10.903   6.532
63713W        W16609  17.118  19.838   0.991
63714W        W16610   7.875  12.707   1.384
63715W        W16611   5.104  13.001   7.773
63716W        W16612  11.997  26.427   9.915
63717W        W16613   7.055  15.970   8.205
63718W        W16614  14.522  30.729   0.750
63719W        W16615  21.702  35.019   1.470
63720W        W16616   3.255  22.000   1.423
63721W        W16617  11.839  11.064   2.016
63722W        W16618  35.180   1.611   0.153
63723W        W16619  33.693  17.051   8.924
63724W        W16620   0.097  24.450   3.873
63725W        W16621  26.586  33.781   0.657
63726W        W16622   1.318   8.310   8.918
63727W        W16623  19.210  14.379  10.033
63728W        W16624   3.872  28.330   0.630
63729W        W16625  10.396  18.605   0.578
63730W        W16626  26.476   6.242   0.025
63731W        W16627  12.182  31.686   7.879
63732W        W16628  34.483  22.335   1.498
63733W        W16629   7.204  10.843   0.535
63734W        W16630  12.187  30.518   7.498
63735W        W16631  21.571  26.224   2.032
63736W        W16632  15.636  35.584   8.716
63737W        W16633  14.181  32.997   2.495
63738W        W16634  28.974  10.036   0.732
63739W        W16635  11.836  29.351   7.868
63740W        W16636  11.924  19.586   8.780
63741W        W16637   4.151   9.419   7.834
63742W        W16638  26.543  17.336   9.359
63743W        W16639  26.051  29.655   0.571
63744W        W16640  23.443  12.597   1.270
63745W        W16641  15.867   9.410   3.957
63746W        W16642  19.057   0.897   1.864
63747W        W16643   7.548   0.040   9.619
63748W        W16644  18.686  25.658   1.656
63749W        W16645  22.681  33.218   0.882
63750W        W16646   8.720  13.343   2.472
63751W        W16647  31.526  33.163   2.387
63752W        W16648   8.638  12.135   3.019
63753W        W16649  11.760  23.847  10.050
63754W        W16650  32.352  33.222   8.594
63755W        W16651  24.681  26.936   2.111
63756W        W16652   6.522  20.191   7.212
63757W        W16653   1.679  29.031   1.784
63758W        W16654   9.016  26.411   2.159
63759W        W16655  27.911   6.695  10.133
63760W        W16656   2.841  13.679   0.642
63761W        W16657  33.208  16.720   4.093
63762W        W16658  24.291   5.776   8.499
63763W        W16659  21.321  14.549   1.039
63764W        W16660  23.434  35.747   0.192
63765W        W16661  33.642  15.141   2.008
63766W        W16662  26.321  34.001   2.604
63767W        W16663   2.663  25.555   7.909
63768W        W16664  12.318  31.980   8.772
63769W        W16665   5.021  34.333   2.773
63770W        W16666   5.654   8.905   7.647
63771W        W16667  29.836   6.364   8.440
63772W        W16668   5.180  35.876   9.633
63773W        W16669  32.244  26.815   0.542
63774W        W16670  29.120   5.170   6.893
63775W        W16671   7.075  31.393   7.381
63776W        W16672  15.513   5.008  10.319
63777W        W16673  11.670  14.487   2.671
63778W        W16674  18.049  23.429   7.311
63779W        W16675   3.336  31.405   8.456
63780W        W16676  20.241  20.085   8.668
63781W        W16677   1.348   9.949   9.997
63782W        W16678  19.326  34.967   2.196
63783W        W16679   2.716   2.588   1.476
63784W        W16680  28.034   7.680   9.901
63785W        W16681  25.025   7.747   0.045
63786W        W16682  29.578  15.574   8.136
63787W        W16683  26.534   6.240   1.891
63788W        W16684   9.132  18.399   0.876
63789W        W16685   7.164  35.066   1.781
63790W        W16686   4.791  22.439   0.429
63791W        W16687  11.792  20.910   9.250
63792W        W16688   2.172  11.421   8.458
63793W        W16689   4.070   4.539   3.458
63794W        W16690  16.209  14.218   1.160
63795W        W16691   7.632   2.926   1.793
63796W        W16692   9.268   2.872   7.739
63797W        W16693  16.092  11.204   9.913
63798W        W16694   8.579   7.758   0.868
63799W        W16695  31.671   8.296   2.479
63800W        W16696  29.655   0.269   7.611
63801W        W16697   3.251  25.920   1.955
63802W        W16698  26.684   1.176   8.995
63803W        W16699  31.494   6.692   9.517
63804W        W16700   3.377  34.199   3.451
63805W        W16701   0.603  22.128   7.755
63806W        W16702   5.717  26.527   1.263
63807W        W16703  35.462  27.543   8.928
63808W        W16704  29.517  12.369   3.767
63809W        W16705   3.561  13.540   3.748
63810W        W16706  24.224  26.178   2.825
63811W        W16707  14.483   6.119   1.421
63812W        W16708  13.803   3.688   0.741
63813W        W16709  26.875  20.421   1.261
63814W        W16710  31.182  14.155   9.969
63815W        W16711   0.161   7.886   1.924
63816W        W16712  13.825  17.057   0.129
63817W        W16713   3.339  35.005   0.399
63818W        W16714  23.885  21.193   9.602
63819W        W16715  16.063  31.143   8.746
63820W        W16716  34.068  34.161   2.775
63821W        W16717  15.849   2.219   1.852
63822W        W16718  26.251   4.646   8.609
63823W        W16719  12.662  16.521   8.353
63824W        W16720   5.445  12.070   1.851
63825W        W16721   8.279  21.906   7.346
63826W        W16722  33.352   9.489   2.473
63827W        W16723   4.044  32.270   1.906
63828W        W16724   1.381  30.737  10.133
63829W        W16725  31.160  10.913   7.694
63830W        W16726  29.949  10.949  10.177
63831W        W16727  21.384   4.307   8.861
63832W        W16728  15.566   5.371   7.889
63833W        W16729  33.924  34.641   2.917
63834W        W16730  27.830  22.209   8.728
63835W        W16731  35.718  14.723   0.147
63836W        W16732   7.990  32.813   8.518
63837W        W16733  16.664  28.290   9.616
63838W        W16734  20.766   8.759   9.601
63839W        W16735  31.124  10.806   9.901
63840W        W16736  14.163  20.570   3.716
63841W        W16737   9.602   4.674   9.576
63842W        W16738  18.455   6.669   8.430
63843W        W16739  21.440   6.292   8.669
63844W        W16740  12.436  16.958   9.695
63845W        W16741  33.691  32.112   8.666
63846W        W16742  15.837  19.370   9.024
63847W        W16743  22.097   3.852   1.553
63848W        W16744  25.620  22.249   8.726
63849W        W16745   1.708  30.584   2.969
63850W        W16746  26.134  10.636   2.354
63851W        W16747   7.642  35.853   0.825
63852W        W16748  15.227  19.715   2.694
63853W        W16749  34.815  14.258   2.964
63854W        W16750  35.023  18.462   3.613
63855W        W16751  34.282  16.086  10.026
63856W        W16752   6.380  11.948   9.139
63857W        W16753  35.937  28.041   7.585
63858W        W16754  10.063   4.991   9.560
63859W        W16755  25.210  22.745   7.976
63860W        W16756   5.907   6.933   2.009
63861W        W16757  17.559   2.793   2.240
63862W        W16758  25.526   7.466   9.589
63863W        W16759  34.830  16.529   3.153
63864W        W16760  19.790  28.184   8.750
63865W        W16761  25.360  23.743   2.560
63866W        W16762  14.095  11.885   2.710
63867W        W16763  26.973  13.017   2.465
63868W        W16764  15.967   4.383   3.175
63869W        W16765  34.077  12.513   9.404
63870W        W16766  19.953  20.415   0.098
63871W        W16767  26.324   4.557   0.159
63872W        W16768  20.470   7.591   2.708
63873W        W16769  25.494  14.935  10.119
63874W        W16770  32.531  21.382   3.251
63875W        W16771   1.873   7.324   9.940
63876W        W16772  28.394  22.902   1.611
63877W        W16773  18.418  17.097   0.631
63878W        W16774  25.936   0.893   9.009
63879W        W16775  10.935  25.084   1.185
63880W        W16776   8.456  22.950   8.973
63881W        W16777  32.513  18.124   8.304
63882W        W16778  15.477  20.300   2.203
63883W        W16779  26.661  33.545   2.660
63884W        W16780  23.874  30.504   8.172
63885W        W16781   7.779   3.381   2.558
63886W        W16782  33.739  26.373   1.699
63887W        W16783  27.626  23.994   0.389
63888W        W16784   1.566  25.334   3.411
63889W        W16785   3.405  10.449   3.950
63890W        W16786  18.701  27.957   9.405
63891W        W16787  30.943  14.908   8.499
63892W        W16788   9.184  33.626   1.286
63893W        W16789  11.306  32.884   1.485
63894W        W16790  16.792  18.254   9.318
63895W        W16791  26.163   7.947   2.220
63896W        W16792  24.497   8.961   9.860
63897W        W16793  23.032  34.113  10.189
63898W        W16794   0.426  29.754   9.217
63899W        W16795  10.031  24.589   6.707
63900W        W16796  11.142  20.403   1.388
63901W        W16797  20.937  12.107   2.353
63902W        W16798   5.546  28.365   2.645
63903W        W16799   3.467  20.803   0.665
63904W        W16800   9.520   5.517   1.398
63905W        W16801  17.293   4.127   0.921
63906W        W16802  34.072  15.469   0.933
63907W        W16803  35.965  28.039   2.017
63908W        W16804  15.524  27.797   2.973
63909W        W16805  14.829   4.491   8.683
63910W        W16806  19.754   3.782   8.843
63911W        W16807  31.810  11.866   8.788
63912W        W16808  34.144   3.202   2.193
63913W        W16809  29.405  28.853   2.713
63914W        W16810  32.685   4.707   9.830
63915W        W16811  26.145  12.126  10.256
63916W        W16812  25.058   3.802   9.946
63917W        W16813  34.719  19.779   0.046
63918W        W16814  21.964  29.478   8.569
63919W        W16815  35.351   6.292   8.020
63920W        W16816  16.951   3.741   1.195
63921W        W16817  20.130   3.474   8.956
63922W        W16818  18.687  21.866   0.088
63923W        W16819  14.534  32.181  10.214
63924W        W16820  14.276  33.617   0.130
63925W        W16821  12.389  14.015   0.851
63926W        W16822  17.462   2.218   8.894
63927W        W16823  23.663  30.247   0.521
63928W        W16824  12.108  17.351   7.385
63929W        W16825  18.196   8.671   9.067
63930W        W16826  25.472  20.384   0.968
63931W        W16827  29.852   5.783   8.250
63932W        W16828  19.435  33.803   7.412
63933W        W16829   3.351  23.802   2.845
63934W        W16830  16.264  27.204   7.757
63935W        W16831   7.719   5.745   1.583
63936W        W16832  32.522  29.057   2.749
63937W        W16833   9.217  34.453   9.739
63938W        W16834   4.074  33.619   3.038
63939W        W16835   7.783   8.684   9.474
63940W        W16836  35.912  12.558   2.004
63941W        W16837   6.276  21.714   9.062
63942W        W16838   2.574   3.687   8.872
63943W        W16839   2.545  35.610   8.176
63944W        W16840  30.819  19.309   3.101
63945W        W16841  29.219  12.270   3.065
63946W        W16842  16.711  29.508   9.422
63947W        W16843  25.052  18.233   1.320
63948W        W16844  28.433  12.628  10.038
63949W        W16845  15.943  30.102   0.032
63950W        W16846  14.361  19.598   3.618
63951W        W16847   5.461  31.814   9.274
63952W        W16848   1.622  25.847   9.034
63953W        W16849   6.984  10.063   7.869
63954W        W16850  31.553   6.032   2.061
63955W        W16851   3.985  11.784   3.383
63956W        W16852  29.727  19.683   2.371
63957W        W16853  13.161  31.140   2.362
63958W        W16854  25.137  11.731   0.857
63959W        W16855  23.009  22.745  10.069
63960W        W16856   0.711   9.538   1.606
63961W        W16857  17.574  21.361   1.566
63962W        W16858  34.055   5.842   2.618
63963W        W16859  27.984   3.475   9.916
63964W        W16860  29.197   8.319   8.539
63965W        W16861  26.648  13.733   8.410
63966W        W16862  32.243  13.910   3.629
63967W        W16863  17.555  28.361  10.152
63968W        W16864   0.014  20.576   2.380
63969W        W16865   7.739  22.503   0.312
63970W        W16866   1.822  28.201   1.268
63971W        W16867  27.124  32.164   7.893
63972W        W16868  31.952   5.295  10.195
63973W        W16869  11.753  19.574   9.856
63974W        W16870  22.737  34.738   8.308
63975W        W16871   1.103   1.675   7.501
63976W        W16872  17.523  25.087   3.230
63977W        W16873  30.588   0.247   0.335
63978W        W16874  33.526  32.332   3.572
63979W        W16875   3.647   1.153   9.288
63980W        W16876  33.159  33.836   7.795
63981W        W16877  10.289  26.900   1.412
63982W        W16878  15.957   8.926   3.138
63983W        W16879  16.429   6.772   2.104
63984W        W16880  23.153  25.510   9.820
63985W        W16881  30.559   3.518   2.042
63986W        W16882  35.995  23.134   9.639
63987W        W16883   2.996  30.660   0.626
63988W        W16884  28.387  23.913   9.605
63989W        W16885  11.164  34.451   9.018
63990W        W16886  20.435  26.979   8.073
63991W        W16887   9.139  26.095   8.630
63992W        W16888  25.638   0.730   1.236
63993W        W16889  16.089   2.586  10.194
63994W        W16890  17.321  28.924   1.181
63995W        W16891   2.053   0.752   8.979
63996W        W16892  31.787  27.281   1.488
63997W        W16893   3.169  28.947   8.945
63998W        W16894  28.822   9.499   1.144
63999W        W16895  20.785  34.474   1.474
64000W        W16896  14.863  28.026   8.914
64001W        W16897   0.593  27.948   3.478
64002W        W16898  32.440  12.335   9.363
64003W        W16899  16.155  16.851   2.501
64004W        W16900   9.971   3.142   1.603
64005W        W16901  13.783  13.181   0.233
64006W        W16902  19.122  31.567   1.809
64007W        W16903   5.363   7.910  10.075
64008W        W16904  24.294  16.695   9.624
64009W        W16905  30.952  32.721   2.851
64010W        W16906  12.531   8.909   1.912
64011W        W16907  16.155  12.256   7.752
64012W        W16908   2.206  24.169   9.508
64013W        W16909   1.715  35.827   3.311
64014W        W16910  24.366  15.952   3.549
64015W        W16911  29.062  34.391   2.521
64016W        W16912   2.800  31.508   2.469
64017W        W16913   0.961  33.325   3.799
64018W        W16914   1.858  27.283   7.622
64019W        W16915   4.319   6.052   0.686
64020W        W16916  26.615  23.114   0.899
64021W        W16917  31.772   4.304   1.199
64022W        W16918  31.444   5.633   7.993
64023W        W16919   5.935  27.230   0.975
64024W        W16920   4.489  20.685   2.797
64025W        W16921  19.169  32.239   2.662
64026W        W16922  22.345   2.160   0.382
64027W        W16923   0.867  34.414   8.360
64028W        W16924  18.685   5.849   1.507
64029W        W16925  34.150   6.540   8.346
64030W        W16926  21.537  11.486  10.071
64031W        W16927  26.257   6.523   1.060
64032W        W16928  14.963  16.903   8.808
64033W        W16929  24.756  32.216   2.003
64034W        W16930  35.891   7.695   3.336
64035W        W16931  32.361  22.954   2.970
64036W        W16932  18.252  33.515   0.130
64037W        W16933  11.024  32.397   3.163
64038W        W16934  11.397  34.825   8.427
64039W        W16935  15.263  11.075   9.244
64040W        W16936  34.592   1.583   1.087
64041W        W16937   0.049  14.997   8.653
64042W        W16938  19.773   6.888   8.692
64043W        W16939  10.175  25.829   2.946
64044W        W16940  13.226   3.969   7.604
64045W        W16941   7.033  14.460   9.176
64046W        W16942  30.697  23.294   3.042
64047W        W16943  26.556  12.077   2.356
64048W        W16944  16.650   3.101   2.929
64049W        W16945   0.198  28.564   2.817
64050W        W16946  22.847  27.795   2.722
64051W        W16947  22.849  20.047   8.233
64052W        W16948   4.939  16.836   2.422
64053W        W16949  22.464  22.057   8.904
64054W        W16950  18.861   6.311   8.543
64055W        W16951  11.174  20.766   8.542
64056W        W16952  25.103   3.126   3.455
64057W        W16953  24.156  13.333   0.990
64058W        W16954  22.779   4.922   1.466
64059W        W16955   7.677   6.579   0.784
64060W        W16956  16.191   6.015   2.725
64061W        W16957  15.118   5.520   1.570
64062W        W16958  17.926   3.924   0.925
64063W        W16959   9.350  29.332   2.795
64064W        W16960  17.641  21.410   0.634
64065W        W16961  24.985  19.671  10.131
64066W        W16962   9.477  23.726   8.817
64067W        W16963  13.876  10.667   0.118
64068W        W16964   9.974  33.014   7.231
64069W        W16965  13.797  10.565   9.851
64070W        W16966   9.397   6.117  10.045
64071W        W16967  21.527  19.218   8.802
64072W        W16968   8.694   4.724   0.796
64073W        W16969  22.604  35.264   9.043
64074W        W16970  15.366  32.437   8.799
64075W        W16971   9.183  23.284   1.395
64076W        W16972  11.474  34.953   0.591
64077W        W16973  29.978  12.689   8.420
64078W        W16974  25.756  15.378  10.180
64079W        W16975  34.827   7.282   0.975
64080W        W16976  29.545  21.679   7.531
64081W        W16977   4.183  11.094   2.802
64082W        W16978  30.920  15.763   0.954
64083W        W16979   2.515   8.992   7.649
64084W        W16980   3.048   8.297   9.129
64085W        W16981  20.892  30.707   0.843
64086W        W16982  25.821   3.185   9.985
64087W        W16983  23.940   0.335   1.959
64088W        W16984   6.685  12.289   7.228
64089W        W16985  24.916  34.445   8.034
64090W        W16986  22.745  27.389   0.398
64091W        W16987  26.525   4.930   7.224
64092W        W16988  25.414  20.899   7.293
64093W        W16989  34.424  24.101   2.786
64094W        W16990  11.065  17.988   0.592
64095W        W16991  28.586  22.778   2.627
64096W        W16992  32.817  27.222   9.750
64097W        W16993  34.813  17.298   7.884
64098W        W16994   7.814  33.129   0.390
64099W        W16995  29.035   5.169   0.976
64100W        W16996  10.255   1.050   2.927
64101W        W16997  20.522   5.137   7.610
64102W        W16998   6.518  33.757   9.092
64103W        W16999  15.771   7.547   2.919
64104W        W17000  11.525   8.160   9.648
64105W        W17001   1.952   9.463   9.286
64106W        W17002  33.939   0.982  10.255
64107W        W17003  24.172  34.791   7.043
64108W        W17004  35.372   6.376   0.589
64109W        W17005   5.537  13.814  10.218
64110W        W17006  20.933  26.120  10.033
64111W        W17007   7.713   2.276   9.364
64112W        W17008  27.120   9.267   8.117
64113W        W17009  32.595  12.310  10.164
64114W        W17010   6.573  26.132   9.422
64115W        W17011  20.423  28.284   2.661
64116W        W17012   0.586  20.127   2.982
64117W        W17013  26.887   7.108   1.784
64118W        W17014  32.432   0.828   0.190
64119W        W17015  33.820  29.632   0.937
64120W        W17016   6.569  15.077   3.273
64121W        W17017   4.704  27.357   1.481
64122W        W17018  21.531   7.195   1.270
64123W        W17019   6.871  11.460   0.122
64124W        W17020   1.531  21.384   3.874
64125W        W17021  30.801  18.964   1.420
64126W        W17022   6.422  13.382   2.909
64127W        W17023  25.241  26.252   8.588
64128W        W17024  10.968   0.596   1.856
64129W        W17025   0.951  32.124   0.959
64130W        W17026  21.198  20.312   7.589
64131W        W17027   5.040   0.554   8.361
64132W        W17028  29.394  29.771   9.093
64133W        W17029  12.011  28.909   9.489
64134W        W17030  13.042  29.880   1.927
64135W        W17031  10.330   9.453   7.110
64136W        W17032   9.396  23.891   8.403
64137W        W17033  18.421   2.831   0.125
64138W        W17034  34.677  19.805   8.004
64139W        W17035  21.081   7.406   3.405
64140W        W17036  29.617  29.328   9.096
64141W        W17037  12.240  28.082   2.851
64142W        W17038   6.428  32.025   9.713
64143W        W17039  10.801  25.913   8.002
64144W        W17040  29.051   2.629   1.993
64145W        W17041  27.832   2.386   9.962
64146W        W17042  16.699   5.229   0.189
64147W        W17043  30.057  10.069   9.224
64148W        W17044  32.803   8.267   0.346
64149W        W17045  34.089   5.765   2.129
64150W        W17046  25.575  34.149   8.235
64151W        W17047  33.607  18.171   2.212
64152W        W17048   3.267  18.801   8.159
64153W        W17049  32.097  20.717   1.817
64154W        W17050  14.794  13.410   9.938
64155W        W17051  10.624  29.113   1.509
64156W        W17052  15.251  32.668   2.250
64157W        W17053  21.689   3.929   2.791
64158W        W17054   7.772   7.432   8.748
64159W        W17055  25.608  14.224   2.227
64160W        W17056  24.513  15.924   1.940
64161W        W17057  18.026  22.928   9.287
64162W        W17058   4.616  23.970   9.592
64163W        W17059  27.979  17.573  10.019
64164W        W17060  22.780  29.754   7.697
64165W        W17061   9.596  34.176   9.480
64166W        W17062  24.021  28.502   2.504
64167W        W17063   4.129  31.307   9.748
64168W        W17064   5.553  15.275   9.788
64169W        W17065  30.234  25.940   2.048
64170W        W17066  26.816   5.236   3.253
64171W        W17067  32.951  10.593   0.803
64172W        W17068  32.430  15.403   0.848
64173W        W17069  18.836  31.004   9.614
64174W        W17070  35.507  14.614   2.127
64175W        W17071  35.132  34.501   7.966
64176W        W17072   6.191  34.221   0.786
64177W        W17073  24.621  27.785   7.508
64178W        W17074   4.010   5.598   3.165
64179W        W17075  15.017  14.213   1.718
64180W        W17076  16.554  14.765   9.776
64181W        W17077  29.249  22.265   0.608
64182W        W17078  15.885   4.759  10.031
64183W        W17079  10.283   5.753   0.298
64184W        W17080   0.681  21.860   1.938
64185W        W17081  33.914  25.222   1.469
64186W        W17082  30.386   0.814   1.019
64187W        W17083   2.854  34.261   9.342
64188W        W17084  11.265  10.300   9.427
64189W        W17085  35.031  32.562   2.654
64190W        W17086   9.000  32.857   0.718
64191W        W17087  19.552  21.656   9.165
64192W        W17088   2.501   0.135  10.234
64193W        W17089   0.207   8.657   2.605
64194W        W17090  21.693  11.663   1.023
64195W        W17091   1.602  14.616   3.079
64196W        W17092  29.955  11.809   8.746
64197W        W17093  10.859   4.603   2.299
64198W        W17094  14.816  34.783   7.939
64199W        W17095  12.361  25.830   8.860
64200W        W17096  25.526  10.371  10.252
64201W        W17097   5.691  35.420   0.504
64202W        W17098   9.624  35.617   8.161
64203W        W17099  11.521  18.060   1.880
64204W        W17100  33.067  28.327   3.163
64205W        W17101   1.785  13.007   8.253
64206W        W17102  22.910  17.191   7.797
64207W        W17103  20.323  30.826   0.254
64208W        W17104  30.191   2.030   8.694
64209W        W17105   9.708  20.272   7.935
64210W        W17106  32.968  18.652   1.377
64211W        W17107   2.580  17.047   7.875
64212W        W17108   0.238   7.360   3.209
64213W        W17109  14.573  23.027   0.824
64214W        W17110  28.802  18.991   0.360
64215W        W17111  26.980   2.164   9.084
64216W        W17112  10.024  35.090   9.589
64217W        W17113  34.201   1.181   8.655
64218W        W17114   3.064   0.859   1.154
64219W        W17115  28.197  14.867   3.222
64220W        W17116   2.856  12.655   0.988
64221W        W17117  23.497   3.103   1.010
64222W        W17118  23.910   6.714   9.000
64223W        W17119  18.990  10.376   8.518
64224W        W17120  22.565  15.108   0.438
64225W        W17121  18.284  26.573   0.530
64226W        W17122  22.691  30.675   9.873
64227W        W17123   1.100  18.599   2.665
64228W        W17124  32.443  26.075   2.245
64229W        W17125  15.476  21.475   2.936
64230W        W17126  11.109  20.300   9.787
64231W        W17127  31.531  27.063   8.923
64232W        W17128  21.601   9.067   7.903
64233W        W17129  10.822  29.703   8.960
64234W        W17130  29.823  34.944   0.833
64235W        W17131  28.644  17.213   0.883
64236W        W17132  24.376  35.995   7.780
64237W        W17133   5.907  16.946   8.484
64238W        W17134  15.945   2.759   0.575
64239W        W17135  26.291  11.158   9.655
64240W        W17136  11.852  34.661   9.841
64241W        W17137  17.355   1.717  10.191
64242W        W17138  33.152   3.274   6.938
64243W        W17139   2.638  16.853   1.481
64244W        W17140  23.066  28.785   0.770
64245W        W17141   8.523   6.072   1.163
64246W        W17142  11.156   4.798   8.064
64247W        W17143  14.104  32.984   0.881
64248W        W17144  22.645  30.683   2.503
64249W        W17145  15.696  13.981   2.033
64250W        W17146  10.240  12.202   3.107
64251W        W17147   2.975  17.156   1.705
64252W        W17148  12.314  10.821   0.862
64253W        W17149  34.058  17.300   8.112
64254W        W17150  14.462   7.481   1.585
64255W        W17151  27.286   4.975   1.210
64256W        W17152  26.856  34.026   2.561
64257W        W17153   5.260  23.369   1.727
64258W        W17154  10.351   5.374   9.702
64259W        W17155  22.760  27.306   8.596
64260W        W17156  13.295  24.729   7.570
64261W        W17157   6.803  20.887   9.069
64262W        W17158  19.269  15.720   1.805
64263W        W17159  26.260  25.549   1.287
64264W        W17160   6.388  31.547   9.819
64265W        W17161  10.876  10.725   0.317
64266W        W17162   0.545  19.173   0.936
64267W        W17163  11.716  16.967   1.930
64268W        W17164  22.283  21.408   8.220
64269W        W17165   9.363  21.343   0.137
64270W        W17166  12.237  16.023   3.154
64271W        W17167  18.801  24.423   1.156
64272W        W17168  32.584  26.129   7.771
64273W        W17169  16.830  14.965   7.763
64274W        W17170  30.429  14.610   2.820
64275W        W17171  22.330   8.590   8.614
64276W        W17172  29.504  33.347   2.582
64277W        W17173   2.932   2.009   2.760
64278W        W17174  34.670  13.648   1.429
64279W        W17175  27.402  23.204   1.326
64280W        W17176   2.328  16.742   2.287
64281W        W17177   5.037  29.581   2.727
64282W        W17178   7.070  32.284   8.409
64283W        W17179  17.625   2.354   8.081
64284W        W17180  10.726   3.161   2.680
64285W        W17181  24.932  11.629   2.070
64286W        W17182  13.992   2.212   8.382
64287W        W17183  34.691   9.138   2.488
64288W        W17184  17.414  29.922   9.030
64289W        W17185  28.627  34.838   1.469
64290W        W17186   8.523   7.901   9.292
64291W        W17187  14.262  10.551   1.342
64292W        W17188  13.411  24.918   3.054
64293W        W17189  34.652   0.897   9.567
64294W        W17190  17.180  10.495   8.193
64295W        W17191  20.950  21.500   1.945
64296W        W17192  21.091  27.318   0.515
64297W        W17193   7.920   5.809   9.703
64298W        W17194  10.009   7.588  10.286
64299W        W17195  31.541  33.804   1.500
64300W        W17196  35.022   5.120   8.017
64301W        W17197  25.062  29.101   9.450
64302W        W17198  27.088  35.478   2.305
64303W        W17199   9.824  16.983   0.245
64304W        W17200   7.652  33.216   2.148
64305W        W17201  35.679  33.318   0.531
64306W        W17202  19.791   9.368   8.989
64307W        W17203  31.351  15.074  10.262
64308W        W17204  31.317  10.784   2.309
64309W        W17205  30.224   7.815   9.839
64310W        W17206  24.460   2.277   0.744
64311W        W17207  31.273   2.329   2.017
64312W        W17208  22.381  22.112   9.385
64313W        W17209  23.482  29.469   2.852
64314W        W17210  29.349  18.182   0.221
64315W        W17211   1.433   0.225   3.021
64316W        W17212  28.776   6.293   9.303
64317W        W17213   1.270   0.457   8.419
64318W        W17214  31.325   3.650   1.900
64319W        W17215  26.577  34.276   2.233
64320W        W17216   3.039  32.739   7.892
64321W        W17217  18.731  32.477   7.074
64322W        W17218  16.509   0.759   0.026
64323W        W17219   6.809  13.743   9.679
64324W        W17220   7.669  24.691   9.120
64325W        W17221  23.077  34.637   1.364
64326W        W17222  21.253   7.111   2.701
64327W        W17223  15.446  21.116   2.217
64328W        W17224  26.106  22.898   0.106
64329W        W17225  22.824  33.157   7.444
64330W        W17226  28.640   0.478   0.050
64331W        W17227   3.533  29.710   7.895
64332W        W17228   6.323   0.353  10.242
64333W        W17229  26.624  29.537   8.236
64334W        W17230  20.282  31.173   8.536
64335W        W17231   6.678   5.884   3.792
64336W        W17232  32.379  28.343   9.913
64337W        W17233  12.559   4.146   8.605
64338W        W17234  17.834  28.215   2.770
64339W        W17235  29.646  28.895   0.843
64340W        W17236  30.473  20.381   9.674
64341W        W17237   6.133  12.938   7.942
64342W        W17238  17.186  31.401   0.667
64343W        W17239   9.009  10.526   2.489
64344W        W17240  28.332  31.494   1.612
64345W        W17241  18.000  14.763   8.226
64346W        W17242  29.592  11.462   3.041
64347W        W17243   0.416  27.427  10.237
64348W        W17244  15.985  27.972   2.716
64349W        W17245  33.245  25.045   0.192
64350W        W17246  35.270  33.490   2.811
64351W        W17247  33.780   6.543   1.169
64352W        W17248   3.904  31.785   1.934
64353W        W17249  14.986  19.258   0.808
64354W        W17250  11.592   8.833   7.311
64355W        W17251  32.581  24.872   2.410
64356W        W17252  26.625  29.360   9.355
64357W        W17253  19.309  10.074   8.247
64358W        W17254   3.043   9.122   8.446
64359W        W17255  12.829  23.325   0.429
64360W        W17256  27.769  15.237   8.438
64361W        W17257   5.300  23.822   7.890
64362W        W17258  16.367   4.465   0.710
64363W        W17259   9.721  15.912   3.310
64364W        W17260  31.247  24.643  10.225
64365W        W17261   4.913   6.915  10.113
64366W        W17262  33.545  14.971   0.361
64367W        W17263   5.559  20.468   9.355
64368W        W17264   7.351  15.935   1.987
64369W        W17265   6.543  19.282   0.766
64370W        W17266  10.748  15.699   2.402
64371W        W17267  33.530  10.216  10.066
64372W        W17268  29.105  24.267   9.147
64373W        W17269  33.174  16.741   1.232
64374W        W17270   2.426  19.381   9.897
64375W        W17271  18.213  31.653   1.689
64376W        W17272   8.293   1.546   8.977
64377W        W17273   5.034  15.118   1.529
64378W        W17274  16.296   9.106   1.890
64379W        W17275  32.806  11.120   8.291
64380W        W17276   9.342  20.635   3.234
64381W        W17277  19.675  12.213   9.289
64382W        W17278   4.301   3.210   2.405
64383W        W17279  30.729  30.685   0.267
64384W        W17280   7.353   3.180   9.354
64385W        W17281  11.215  26.469   7.549
64386W        W17282  19.187  19.970   1.194
64387W        W17283   9.779  13.539  10.233
64388W        W17284  27.232  34.663   7.637
64389W        W17285   5.768  23.395   3.756
64390W        W17286  23.397  15.383   9.055
64391W        W17287  11.992   7.528   2.155
64392W        W17288  29.459  14.591   8.383
64393W        W17289  21.087  11.407   0.768
64394W        W17290   4.939  14.099   9.240
64395W        W17291  22.252  10.310   2.032
64396W        W17292  31.189  23.193   8.767
64397W        W17293   5.428   7.067   8.696
64398W        W17294  16.346  24.756   0.617
64399W        W17295   3.592  16.973   2.273
64400W        W17296  24.608  19.058   3.004
64401W        W17297  20.120  15.006   8.058
64402W        W17298  11.173   3.437   0.970
64403W        W17299  27.303  27.580   7.426
64404W        W17300   6.698   2.948   9.321
64405W        W17301  24.200  23.351   0.927
64406W        W17302  31.068   8.689   1.470
64407W        W17303   3.606  11.511   9.882
64408W        W17304   6.716  35.181   7.347
64409W        W17305  17.739   1.634   9.428
64410W        W17306   6.879  27.319   1.485
64411W        W17307  28.140   0.893  10.106
64412W        W17308  14.520  19.886   8.578
64413W        W17309  29.397   6.847   8.780
64414W        W17310   6.119  27.963   8.217
64415W        W17311  30.483  10.387   7.742
64416W        W17312   4.255  22.501   0.616
64417W        W17313   6.004  18.048   1.827
64418W        W17314  34.873  33.786   1.054
64419W        W17315  26.360  14.205   1.448
64420W        W17316  30.147  16.046   2.345
64421W        W17317  11.629   6.857   0.484
64422W        W17318  30.105   1.559   9.976
64423W        W17319  33.078  35.551   8.975
64424W        W17320  10.213  29.246   2.588
64425W        W17321  28.745  11.851   0.341
64426W        W17322   2.651  28.389   2.561
64427W        W17323   2.568  29.248  10.161
64428W        W17324  34.810  30.011   8.538
64429W        W17325  14.411   7.224  10.033
64430W        W17326  32.506  12.650   8.965
64431W        W17327  18.577  32.446   7.587
64432W        W17328  35.353  26.458   8.679
64433W        W17329  35.051  31.154   9.684
64434W        W17330  31.686  22.191   7.288
64435W        W17331   7.662  35.385   1.153
64436W        W17332  14.546   3.186   9.720
64437W        W17333  17.207   0.675   2.100
64438W        W17334  27.810   9.453  10.031
64439W        W17335   2.927  16.167   8.554
64440W        W17336  13.848  22.271   2.478
64441W        W17337  31.653  32.663   9.685
64442W        W17338  32.697  18.966   2.614
64443W        W17339  13.402   6.246   2.717
64444W        W17340  18.775  13.103   0.209
64445W        W17341  25.123   3.185  10.335
64446W        W17342   2.261  29.811   0.548
64447W        W17343  25.486  29.548   8.719
64448W        W17344  17.472  35.464   9.724
64449W        W17345   8.227  33.346   9.994
64450W        W17346  25.229  20.147   2.405
64451W        W17347  17.421   6.904   9.893
64452W        W17348  32.171  30.040   3.032
64453W        W17349  20.411   6.031   3.407
64454W        W17350  28.373   2.423   8.737
64455W        W17351   7.751  23.991   8.070
64456W        W17352  20.535  25.562   9.552
64457W        W17353  23.329  19.284   1.652
64458W        W17354  28.936  17.634   8.168
64459W        W17355  34.039  29.127   0.896
64460W        W17356   9.380   9.862  10.001
64461W        W17357   3.180  33.759   2.647
64462W        W17358  35.100   2.057   2.821
64463W        W17359   2.160  28.668   0.768
64464W        W17360   8.977  30.453   9.743
64465W        W17361   3.998   6.214   2.665
64466W        W17362  20.728   4.242   2.756
64467W        W17363  18.813  13.527   9.784
64468W        W17364  23.002  19.494   2.768
64469W        W17365  15.863   9.146   0.936
64470W        W17366  30.975  23.906   9.865
64471W        W17367  22.246  26.192   9.116
64472W        W17368  12.895  31.810   8.286
64473W        W17369   8.018   0.273   9.473
64474W        W17370  18.331   0.929   3.144
64475W        W17371  35.092  15.897   0.377
64476W        W17372  24.378   0.360   1.653
64477W        W17373   3.848   0.269   9.767
64478W        W17374   2.650  29.831   2.696
64479W        W17375  22.956   7.816   8.838
64480W        W17376   0.212  14.330   2.792
64481W        W17377  19.421  30.838   0.708
64482W        W17378  16.789  20.472   9.574
64483W        W17379  12.572  26.734   0.159
64484W        W17380  18.211  21.739   2.505
64485W        W17381  29.419  18.006  10.082
64486W        W17382  32.478  33.340   9.543
64487W        W17383  35.007  24.583   3.580
64488W        W17384   2.889  26.744   0.163
64489W        W17385  17.715  34.178   1.498
64490W        W17386  15.003  25.216   9.792
64491W        W17387   2.512  10.214   9.231
64492W        W17388  27.568  16.511   9.228
64493W        W17389  25.867   0.012   3.561
64494W        W17390  22.050  13.470   9.595
64495W        W17391   9.127   4.471   2.902
64496W        W17392  30.492   1.376   0.960
64497W        W17393  32.343  18.342   1.517
64498W        W17394   7.472   4.479   9.632
64499W        W17395  28.774  28.666  10.270
64500W        W17396  20.384  31.689   7.926
64501W        W17397  12.490   6.942   0.925
64502W        W17398   5.530   2.632   1.883
64503W        W17399  19.323  27.860   1.001
64504W        W17400  29.701  33.278   9.500
64505W        W17401  12.455   5.812  10.066
64506W        W17402   8.026  23.812   9.133
64507W        W17403   0.581  12.783   9.765
64508W        W17404  22.737  18.869   9.201
64509W        W17405   3.518   3.112   3.372
64510W        W17406  11.705   7.327   3.361
64511W        W17407  32.234  14.204   2.561
64512W        W17408  12.041   0.574   7.431
64513W        W17409   2.705   6.905   1.110
64514W        W17410   4.272  15.091   2.543
64515W        W17411   2.190  10.974   2.080
64516W        W17412   4.190  31.594   0.726
64517W        W17413   0.371  10.496   9.199
64518W        W17414  12.163  26.273   7.782
64519W        W17415   1.096   7.187  10.227
64520W        W17416  24.465  22.114   8.014
64521W        W17417  12.459  16.671  10.187
64522W        W17418  30.360  33.987   0.201
64523W        W17419  12.175  10.322   1.641
64524W        W17420   7.095  13.076  10.309
64525W        W17421  26.561  16.873   9.596
64526W        W17422  28.479  10.039   9.216
64527W        W17423  16.252   1.184   0.599
64528W        W17424  34.138  35.837   1.756
64529W        W17425  31.388  10.921   9.030
64530W        W17426  22.458  22.569   0.761
64531W        W17427  18.311  28.369  10.184
64532W        W17428  10.810   4.643   0.894
64533W        W17429   8.313   3.957   3.234
64534W        W17430  24.420  26.483  10.073
64535W        W17431   8.261  29.510   0.122
64536W        W17432   1.909  12.293   0.150
64537W        W17433  21.518  21.472   3.287
64538W        W17434  33.359  19.514   9.109
64539W        W17435   5.516  10.069   3.091
64540W        W17436  13.135  16.732   2.186
64541W        W17437  19.781  18.385   0.866
64542W        W17438  18.266  30.211   9.296
64543W        W17439  28.407  20.620   9.389
64544W        W17440  11.788  31.402   0.632
64545W        W17441  10.435  32.787   8.415
64546W        W17442   4.071  33.100   3.858
64547W        W17443  12.124  30.573   0.650
64548W        W17444  23.082   0.988   9.206
64549W        W17445  17.956   9.593   7.678
64550W        W17446   1.023  19.347   1.132
64551W        W17447  15.160   8.857   0.408
64552W        W17448  20.853  10.342   7.930
64553W        W17449  14.797  22.366   9.447
64554W        W17450   2.096  30.834   1.705
64555W        W17451  27.780  32.143   1.233
64556W        W17452   7.452   2.164   1.689
64557W        W17453   4.016  33.955   9.986
64558W        W17454  18.560  32.724   8.466
64559W        W17455  30.130  25.167   2.741
64560W        W17456   7.444  32.825   9.941
64561W        W17457   9.573  14.270   2.241
64562W        W17458  24.622  13.159   8.892
64563W        W17459  35.179  16.327   8.816
64564W        W17460   3.558  27.634   9.919
64565W        W17461  10.509  21.594   7.255
64566W        W17462  23.060  10.396   8.766
64567W        W17463  32.234  23.531   2.960
64568W        W17464  30.393  35.826   9.709
64569W        W17465  10.404  30.006   1.286
64570W        W17466  19.024   9.959   3.192
64571W        W17467  35.802  20.841   8.959
64572W        W17468  20.750  24.629   3.375
64573W        W17469   4.625  14.496   9.213
64574W        W17470  14.854  22.512   1.376
64575W        W17471  17.142  33.239   8.823
64576W        W17472  16.770   6.094   3.707
64577W        W17473  32.834  16.140   8.693
64578W        W17474   9.662  29.883   2.083
64579W        W17475  14.529  23.333   9.244
64580W        W17476  17.771  29.895   2.536
64581W        W17477  15.184  10.910   1.368
64582W        W17478   8.651  35.926  10.183
64583W        W17479   0.727  18.183  10.224
64584W        W17480   2.145   7.302   0.583
64585W        W17481  31.136  23.230   1.244
64586W        W17482  16.038  23.139   3.968
64587W        W17483   6.623  30.883   9.059
64588W        W17484   2.333  10.958   9.445
64589W        W17485  16.362  10.943   2.906
64590W        W17486   1.089  29.485   0.025
64591W        W17487   4.571  13.155   3.057
64592W        W17488   8.359   0.286   8.195
64593W        W17489   7.547  18.125   9.560
64594W        W17490   4.885  35.813   0.475
64595W        W17491  28.325   1.573   8.227
64596W        W17492   7.120  10.294   8.323
64597W        W17493   0.694  26.475   8.701
64598W        W17494  34.219   9.475   7.796
64599W        W17495  14.451  25.925  10.272
64600W        W17496  19.687  26.183   9.992
64601W        W17497  27.682  21.719   8.995
64602W        W17498   3.111  19.347   2.663
64603W        W17499   7.614  26.860   8.779
64604W        W17500  18.209   9.375   9.712
64605W        W17501  21.079  26.174   8.563
64606W        W17502  19.985  25.010  10.252
64607W        W17503  10.324  15.774   3.205
64608W        W17504  25.207  26.071   0.357
64609W        W17505  11.254  17.979   2.341
64610W        W17506   9.316  22.954   1.048
64611W        W17507  27.435  29.850   8.682
64612W        W17508  15.416  19.695   1.572
64613W        W17509  26.931  20.294   0.419
64614W        W17510  29.094  26.048   9.543
64615W        W17511  11.282  25.849   1.957
64616W        W17512  11.187  23.842   9.386
64617W        W17513   2.940  19.738   2.450
64618W        W17514  24.575   6.984   2.651
64619W        W17515  20.708  10.829   0.556
64620W        W17516  17.838  27.165   2.014
64621W        W17517  26.619  26.021   2.529
64622W        W17518  11.090   0.670  10.200
64623W        W17519  11.176  20.958   2.338
64624W        W17520   9.993  17.401   7.583
64625W        W17521  34.493  29.317   0.821
64626W        W17522  21.386  28.948   2.006
64627W        W17523  31.409   4.450  10.076
64628W        W17524  34.631  10.745   0.580
64629W        W17525  15.690  26.977   0.720
64630W        W17526   0.125  30.759   2.146
64631W        W17527   9.970  32.257   9.491
64632W        W17528   6.272  29.898   8.023
64633W        W17529  11.011  15.804   2.801
64634W        W17530  27.768  14.922   2.443
64635W        W17531  16.441  12.223   2.398
64636W        W17532  31.258  12.115   0.564
64637W        W17533  32.116  13.133   0.957
64638W        W17534  26.915   7.398   1.394
64639W        W17535  35.214  17.611   8.149
64640W        W17536  35.278  23.957   9.477
64641W        W17537  14.972   0.767   9.138
64642W        W17538   1.362  13.956   4.045
64643W        W17539  21.241  16.201   2.080
64644W        W17540  28.785  23.715   8.927
64645W        W17541  20.339  22.644   9.755
64646W        W17542  25.708  11.681   1.331
64647W        W17543  27.610   6.634   3.149
64648W        W17544  19.451   1.006   9.556
64649W        W17545   4.150  27.823   9.167
64650W        W17546  18.103  20.611   2.828
64651W        W17547   7.982   7.779   8.035
64652W        W17548   5.799   8.508   8.341
64653W        W17549  13.069  23.751   2.812
64654W        W17550   3.766   3.638   8.773
64655W        W17551  21.870  33.403   2.011
64656W        W17552  13.103   8.953   0.573
64657W        W17553  26.244  32.706   3.204
64658W        W17554  33.109  28.933   1.224
64659W        W17555   1.733  31.722   1.908
64660W        W17556  10.374   5.677   8.186
64661W        W17557  13.547   3.194   2.558
64662W        W17558  22.987  33.080   2.158
64663W        W17559   8.865  21.227   1.458
64664W        W17560  33.702   5.929   9.350
64665W        W17561  27.234  35.350   2.765
64666W        W17562  24.016   9.513   1.285
64667W        W17563   5.004  35.758   1.036
64668W        W17564   8.385  11.430   8.398
64669W        W17565  21.640  33.243   9.314
64670W        W17566  33.927   6.219   1.545
64671W        W17567  14.012   1.799   7.758
64672W        W17568  27.888  31.523   2.415
64673W        W17569  30.141  28.350   0.553
64674W        W17570  24.078  24.939   3.317
64675W        W17571  23.340  23.835   2.536
64676W        W17572   1.759   0.996   2.550
64677W        W17573  32.323  33.289   7.696
64678W        W17574  23.862  13.752   1.799
64679W        W17575  26.759  14.704   0.294
64680W        W17576  26.525  34.999   9.842
64681W        W17577   3.778   0.433   2.460
64682W        W17578   4.833   8.082   3.506
64683W        W17579  10.920  13.901   3.384
64684W        W17580  22.038   8.670   2.331
64685W        W17581   9.933  11.066   0.537
64686W        W17582  35.901   3.951  10.171
64687W        W17583  32.224  28.682   1.873
64688W        W17584   4.167  10.840   9.934
64689W        W17585  27.745   0.170   2.107
64690W        W17586  17.711  22.855   9.881
64691W        W17587  20.669   7.567   9.053
64692W        W17588  26.791  29.894   1.679
64693W        W17589   7.477  13.016   1.800
64694W        W17590  34.590  34.947   8.477
64695W        W17591  19.236  21.895   3.250
64696W        W17592  35.804   8.864   9.159
64697W        W17593  23.716  29.844   9.901
64698W        W17594  30.314  18.425   9.507
64699W        W17595  10.149  11.285   9.433
64700W        W17596  14.683  27.260   9.086
64701W        W17597   3.269  33.385   4.051
64702W        W17598  32.381  16.984   8.785
64703W        W17599  16.815  20.542   3.416
64704W        W17600  24.872   1.104   9.087
64705W        W17601  34.644  29.147   0.355
64706W        W17602  23.823  22.110   8.659
64707W        W17603   5.332  26.026  10.244
64708W        W17604   9.247  28.368   1.060
64709W        W17605  33.158  25.892   3.556
64710W        W17606  15.171   9.253   8.808
64711W        W17607   6.082  13.946   8.920
64712W        W17608   1.591   8.437   3.301
64713W        W17609  28.887  16.257   1.227
64714W        W17610  28.918  17.468   2.345
64715W        W17611  33.170  24.708   8.032
64716W        W17612  13.654   4.469   9.618
64717W        W17613  28.750   2.011   2.836
64718W        W17614  16.757  25.698   1.233
64719W        W17615  15.869  10.103   7.703
64720W        W17616  21.185  13.443   8.290
64721W        W17617   1.646  34.094  10.216
64722W        W17618  22.817   8.560   7.998
64723W        W17619  17.108   9.123   9.091
64724W        W17620  29.443   3.054   3.171
64725W        W17621  21.106  24.211   8.532
64726W        W17622  17.864  19.832   2.007
64727W        W17623  32.152   8.531   8.366
64728W        W17624  30.595  20.497   1.366
64729W        W17625  17.552  33.978   1.056
64730W        W17626  16.573   7.175   2.967
64731W        W17627   7.468  17.751   1.536
64732W        W17628  22.036  22.058   8.550
64733W        W17629  11.934  11.373   7.990
64734W        W17630   4.801  21.826   1.676
64735W        W17631  17.860  24.200   9.819
64736W        W17632  35.710  25.250   1.944
64737W        W17633  16.669  29.552   8.393
64738W        W17634  12.793   9.972   9.258
64739W        W17635  30.636  22.705   6.799
64740W        W17636  15.163  25.430   2.397
64741W        W17637   8.724  35.148  10.215
64742W        W17638  13.180  15.097   9.995
64743W        W17639  12.941  23.324   9.349
64744W        W17640  24.839   7.633   8.317
64745W        W17641  18.871  18.310   3.180
64746W        W17642  10.902   1.870   2.791
64747W        W17643   1.426  10.881   9.002
64748W        W17644  32.946  10.251   9.000
64749W        W17645  31.658  33.733  10.220
64750W        W17646  22.841   1.929   8.003
64751W        W17647  11.624   0.018   3.220
64752W        W17648  20.611  11.084   0.149
64753W        W17649  20.935  31.009   0.266
64754W        W17650  11.652  18.086   1.379
64755W        W17651  30.505  27.983   0.801
64756W        W17652  19.325   5.603   1.928
64757W        W17653   5.075  32.593   0.300
64758W        W17654  10.262  13.609   9.443
64759W        W17655  30.335  13.049   8.126
64760W        W17656  27.394  31.583   0.570
64761W        W17657  29.788  15.786   8.605
64762W        W17658   0.445  13.456   3.085
64763W        W17659  18.043  33.556   2.680
64764W        W17660   7.936   4.423   9.960
64765W        W17661   9.771   5.683   1.819
64766W        W17662  26.527   4.942   9.645
64767W        W17663  12.885  32.079   8.688
64768W        W17664  25.027   4.100   1.218
64769W        W17665  25.642  27.583   7.628
64770W        W17666  28.831  29.290   8.569
64771W        W17667   6.160  10.172   0.515
64772W        W17668  29.755  29.481   0.048
64773W        W17669  28.953  11.435   0.317
64774W        W17670  26.877  12.310   8.948
64775W        W17671   7.196  31.251   1.087
64776W        W17672  15.803  19.836   0.711
64777W        W17673  31.747  10.322   2.485
64778W        W17674  18.818   5.714   1.990
64779W        W17675  16.544  14.895   8.231
64780W        W17676   1.895   7.879   0.489
64781W        W17677  32.821   2.528   7.301
64782W        W17678  25.270  12.450   2.600
64783W        W17679  24.798   9.497   2.002
64784W        W17680  32.758  18.105   1.360
64785W        W17681  15.335   8.712  10.227
64786W        W17682   7.891  20.752   7.791
64787W        W17683   0.028  18.357   2.467
64788W        W17684   8.248  32.443   9.676
64789W        W17685  26.519  13.310   7.965
64790W        W17686   3.593  13.305   1.114
64791W        W17687   4.203  29.356   1.149
64792W        W17688  22.154   4.111   1.089
64793W        W17689   8.329  15.267   2.553
64794W        W17690   3.036  10.311   7.775
64795W        W17691  21.970   7.881   9.192
64796W        W17692  14.756  29.914   3.499
64797W        W17693   1.555  35.884   0.067
64798W        W17694   4.887  29.417   9.110
64799W        W17695   8.788   2.483   8.901
64800W        W17696   1.447  13.948   1.805
64801W        W17697  14.232  29.620   7.866
64802W        W17698  29.102  23.999   1.624
64803W        W17699  17.654  23.119   8.903
64804W        W17700  10.607  22.561   1.095
64805W        W17701  23.313  30.591   8.651
64806W        W17702   3.179  28.606   8.582
64807W        W17703   0.225  10.706   2.824
64808W        W17704  26.870  14.015   9.481
64809W        W17705  15.234  24.534   8.506
64810W        W17706   7.568  16.205   1.442
64811W        W17707   9.985   9.730   1.668
64812W        W17708  22.292  16.389   2.677
64813W        W17709  34.338  15.706   2.015
64814W        W17710  15.181  17.271   1.093
64815W        W17711  10.935   6.127   9.368
64816W        W17712  31.937   8.303  10.140
64817W        W17713  31.398  11.261   3.955
64818W        W17714  33.514  33.461   3.833
64819W        W17715  11.603   5.318   3.104
64820W        W17716  24.464  25.545   7.611
64821W        W17717   4.042  10.538   2.886
64822W        W17718   0.961  33.229   0.107
64823W        W17719  28.003  22.478   1.458
64824W        W17720  22.713  16.175   8.761
64825W        W17721  20.562  26.452   9.338
64826W        W17722  25.069  28.633   9.567
64827W        W17723  27.444   3.115   3.436
64828W        W17724  20.464  35.764   0.142
64829W        W17725   5.710  14.646   9.553
64830W        W17726   7.371  18.690   8.108
64831W        W17727   5.095  16.915   0.493
64832W        W17728   0.405   0.476   2.495
64833W        W17729  28.274   0.113   8.532
64834W        W17730  33.467  19.325   3.211
64835W        W17731  30.786  17.955   8.221
64836W        W17732  18.438  17.697   2.561
64837W        W17733  32.008  17.216   2.324
64838W        W17734  19.248  15.068   9.301
64839W        W17735   1.421  19.577  10.216
64840W        W17736  22.812  33.803   1.588
64841W        W17737   1.082  31.954   8.381
64842W        W17738  22.195  10.250   3.247
64843W        W17739  29.907  13.236   3.905
64844W        W17740  11.376  27.892   0.757
64845W        W17741  14.754  12.630   2.425
64846W        W17742  22.637  16.432   2.278
64847W        W17743  34.282  25.566   0.435
64848W        W17744  10.235   5.924   1.556
64849W        W17745   3.241  11.861   8.667
64850W        W17746   0.983   7.377   1.246
64851W        W17747  21.028  25.637   3.840
64852W        W17748  21.226  33.214   8.550
64853W        W17749  18.180   6.403   0.495
64854W        W17750   9.837   8.548   3.017
64855W        W17751  18.707  30.111   9.562
64856W        W17752  24.452   6.515   7.488
64857W        W17753  34.659  21.233   2.376
64858W        W17754  25.350   5.907   8.462
64859W        W17755  20.302  12.015   8.144
64860W        W17756  11.626  24.937   1.795
64861W        W17757  21.654  22.093   0.188
64862W        W17758  24.053  14.329   3.372
64863W        W17759  23.848  15.097   0.364
64864W        W17760  34.285  29.637   8.083
64865W        W17761  17.755  11.567  10.059
64866W        W17762   5.465  13.143   4.178
64867W        W17763   1.833  26.895   1.731
64868W        W17764  19.598  23.755   9.903
64869W        W17765  20.457  31.493   0.943
64870W        W17766   4.497  11.237   2.177
64871W        W17767   5.636  35.034   8.932
64872W        W17768  17.259  19.600   3.614
64873W        W17769  31.776  34.219   0.765
64874W        W17770   8.696   5.285   3.636
64875W        W17771  21.637  21.212   8.290
64876W        W17772  16.178  35.669   1.810
64877W        W17773  28.317   7.516   0.892
64878W        W17774  28.819  15.086   1.942
64879W        W17775  19.340  12.595   9.078
64880W        W17776  28.932   5.842   9.502
64881W        W17777  33.263   0.745   0.729
64882W        W17778   4.759   9.603   8.352
64883W        W17779   3.936  11.401   8.214
64884W        W17780  32.094  18.909   0.179
64885W        W17781  26.529  29.036   1.482
64886W        W17782  34.054  13.946   9.930
64887W        W17783   6.507   9.413   9.474
64888W        W17784  10.282   6.925   9.537
64889W        W17785  32.280  26.582   2.572
64890W        W17786  26.128   0.667   1.118
64891W        W17787   7.099   4.909   9.493
64892W        W17788  32.031  33.100   9.519
64893W        W17789  33.125  21.253  10.123
64894W        W17790   9.129  25.472   9.385
64895W        W17791  22.508  30.100   0.070
64896W        W17792  28.164  22.918   9.383
64897W        W17793  21.635  17.906   2.289
64898W        W17794  24.037   8.038   2.819
64899W        W17795  14.919  23.371   0.783
64900W        W17796  28.396   8.580   1.679
64901W        W17797  14.875   0.679   1.589
64902W        W17798   9.371  21.098  10.052
64903W        W17799  25.608  19.712   0.345
64904W        W17800  11.041  34.007   8.863
64905W        W17801   3.418  34.995   1.352
64906W        W17802  19.008  20.015   8.770
64907W        W17803  10.030  28.229   2.418
64908W        W17804  24.121  20.771   8.213
64909W        W17805   9.123   0.823   1.962
64910W        W17806  32.769  19.740   1.268
64911W        W17807  19.044  25.913   2.823
64912W        W17808  12.566   9.835   7.561
64913W        W17809  17.472  24.465   2.240
64914W        W17810  20.879   9.499   7.924
64915W        W17811  18.202  20.693   9.443
64916W        W17812  10.325  27.094   3.309
64917W        W17813   5.277   5.563   7.577
64918W        W17814  28.758  26.524   3.053
64919W        W17815  14.670  22.092   9.051
64920W        W17816  29.794  29.589   8.574
64921W        W17817  22.923  12.795   1.249
64922W        W17818   0.259  25.314   1.917
64923W        W17819  24.336  34.425   8.761
64924W        W17820   4.069  31.619   2.637
64925W        W17821  31.038  35.756   2.683
64926W        W17822  24.777  25.672   1.003
64927W        W17823  27.468  12.668   3.422
64928W        W17824  34.296  23.629   3.041
64929W        W17825  23.170  20.666  10.142
64930W        W17826  31.622  33.198   1.183
64931W        W17827  21.975  17.693   3.011
64932W        W17828   3.742  21.348   2.567
64933W        W17829  21.308   4.110   7.749
64934W        W17830  26.121  16.408   3.176
64935W        W17831   2.502  15.212   1.497
64936W        W17832  15.550  31.160   8.350
64937W        W17833  21.755  29.513   0.208
64938W        W17834  23.277   9.557  10.197
64939W        W17835  24.887  34.267   1.604
64940W        W17836  22.989  24.053   2.154
64941W        W17837   6.331   5.064   1.102
64942W        W17838  28.726   6.652   0.231
64943W        W17839  30.607  13.586   1.334
64944W        W17840  13.473  28.864   8.818
64945W        W17841  34.351  31.563   1.357
64946W        W17842  17.145  18.888   8.153
64947W        W17843  25.092  12.122   3.728
64948W        W17844   8.555  14.128   0.385
64949W        W17845   5.212   2.797   8.988
64950W        W17846  20.849  21.291   8.822
64951W        W17847   1.902  17.776   0.174
64952W        W17848   7.469  26.832  10.055
64953W        W17849   8.928  14.659   2.578
64954W        W17850  12.587  28.757   9.563
64955W        W17851  14.445  29.918   0.282
64956W        W17852  23.220  24.619   0.444
64957W        W17853   8.558  19.996   2.424
64958W        W17854  28.418  24.061   1.223
64959W        W17855   5.814  32.569   8.389
64960W        W17856  12.093   2.063   8.950
64961W        W17857  14.677   8.877   7.926
64962W        W17858  18.383  10.567   0.884
64963W        W17859   2.417  12.691   3.486
64964W        W17860   3.592  10.024   3.166
64965W        W17861  32.366  30.417   7.613
64966W        W17862   7.427   6.530  10.016
64967W        W17863  27.433  13.345   0.137
64968W        W17864  18.060  34.511   1.507
64969W        W17865  17.990  16.528   0.139
64970W        W17866   1.123   3.422   0.525
64971W        W17867   7.414  26.449   7.537
64972W        W17868  29.746  21.078   0.108
64973W        W17869  20.470  12.732   8.657
64974W        W17870  32.002   0.330   2.202
64975W        W17871  14.108   1.774   1.158
64976W        W17872  29.701  15.538   1.026
64977W        W17873  14.553  35.637   9.241
64978W        W17874  22.525  20.060  10.307
64979W        W17875  22.166   1.510   9.551
64980W        W17876   9.024   5.762   9.352
64981W        W17877  12.043  35.840   8.599
64982W        W17878  12.114   7.947   3.255
64983W        W17879  17.255  15.584   6.915
64984W        W17880  30.601   9.781   2.414
64985W        W17881  16.075  10.431   3.858
64986W        W17882  34.797   6.678   9.738
64987W        W17883  19.324   6.816   7.931
64988W        W17884  19.250  10.185   9.794
64989W        W17885  15.290  20.662   1.952
64990W        W17886  21.834  29.664   8.118
64991W        W17887  12.070  20.743   8.803
64992W        W17888   3.744  10.003   1.242
64993W        W17889   8.924  25.429   2.243
64994W        W17890   2.488  20.581   2.342
64995W        W17891  35.270  24.285   8.968
64996W        W17892   5.135   0.957   2.778
64997W        W17893  10.886  12.033   2.967
64998W        W17894  10.443   6.776   0.053
64999W        W17895   3.255  34.519   9.519
65000W        W17896   8.723   1.058   7.889
65001W        W17897  35.929  11.226   0.048
65002W        W17898  31.887  17.183   7.979
65003W        W17899  27.065  21.528   1.330
65004W        W17900   3.894  27.657   1.748
65005W        W17901  12.437  11.105   9.601
65006W        W17902   3.816  30.073   3.240
65007W        W17903  19.420  23.172   3.375
65008W        W17904   3.707  25.951   8.832
65009W        W17905  30.359  11.334   1.431
65010W        W17906  27.295  10.817  10.242
65011W        W17907  32.428  31.377   1.640
65012W        W17908  26.926  15.215   8.327
65013W        W17909  13.386  34.867   1.141
65014W        W17910  29.772  34.031   2.797
65015W        W17911  34.592  11.735   2.931
65016W        W17912   9.078   8.441   8.353
65017W        W17913  21.076  12.504   3.798
65018W        W17914   1.084  23.548   9.185
65019W        W17915  14.242  10.429   3.469
65020W        W17916  35.500  10.247   1.996
65021W        W17917  18.336  18.369   3.024
65022W        W17918   6.459   4.783   0.453
65023W        W17919  24.212  14.092   2.881
65024W        W17920  27.980  29.623   8.012
65025W        W17921  13.206  11.138   0.682
65026W        W17922   6.575   8.085  10.123
65027W        W17923  28.850  25.451   0.435
65028W        W17924   6.275   5.215   2.407
65029W        W17925  32.495  10.175   3.131
65030W        W17926  35.103  23.675   0.234
65031W        W17927  18.754   2.456  10.210
65032W        W17928  21.964   0.519   0.971
65033W        W17929   4.072  28.039   9.720
65034W        W17930   6.618  19.589   9.188
65035W        W17931  34.324  32.241   0.198
65036W        W17932   6.754  17.952   2.226
65037W        W17933  18.324  14.202   1.059
65038W        W17934  21.023  11.931   7.508
65039W        W17935   2.576  33.267   9.377
65040W        W17936  32.032  15.578   8.584
65041W        W17937   6.484  15.338   1.492
65042W        W17938  23.069   7.999   1.109
65043W        W17939  20.269   5.171   7.992
65044W        W17940   3.249   2.640  10.183
65045W        W17941  24.609  15.076   0.540
65046W        W17942  33.992  11.560   2.405
65047W        W17943  24.031  25.455   8.679
65048W        W17944  15.388  19.283   2.442
65049W        W17945   9.095  19.334   1.843
65050W        W17946  17.205  27.377   1.252
65051W        W17947  23.298   4.577   7.989
65052W        W17948   8.241   1.114   7.722
65053W        W17949  15.344   1.914   3.326
65054W        W17950  32.989   2.709  10.035
65055W        W17951  16.711  34.504   2.276
65056W        W17952   6.089  31.432   2.698
65057W        W17953  12.167  22.438   2.475
65058W        W17954  21.730   4.979   2.773
65059W        W17955  32.268   5.940   7.459
65060W        W17956  29.661  33.957   0.417
65061W        W17957  22.640  26.901   7.935
65062W        W17958  33.274  20.788   8.131
65063W        W17959  23.418   7.544   0.202
65064W        W17960  22.114  31.390   9.732
65065W        W17961   1.528   7.841   2.391
65066W        W17962  29.600  30.388   0.356
65067W        W17963  32.715  23.145   9.564
65068W        W17964   3.870  16.583   0.583
65069W        W17965  27.683  28.304   9.582
65070W        W17966  22.847  25.240   7.872
65071W        W17967  12.408  31.590   3.042
65072W        W17968  35.927   9.011   0.721
65073W        W17969  19.148  22.019   3.737
65074W        W17970  17.651  29.278   8.426
65075W        W17971   9.450  18.798   1.162
65076W        W17972  31.074  32.037   7.122
65077W        W17973   8.603   7.784   8.453
65078W        W17974  21.849  22.902   1.341
65079W        W17975   7.612   6.373   2.668
65080W        W17976  16.325  18.158   0.427
65081W        W17977  26.059  26.316   1.118
65082W        W17978  15.017   5.620   5.402
65083W        W17979  31.885   6.670   1.084
65084W        W17980  24.991   1.939   9.703
65085W        W17981  23.168   0.906   7.954
65086W        W17982  15.566   3.645   0.147
65087W        W17983   6.488   3.157   1.595
65088W        W17984  30.980  28.529   2.904
65089W        W17985  22.106  23.668   7.841
65090W        W17986  21.304  26.043   9.108
65091W        W17987  23.795  15.334   4.089
65092W        W17988   4.948  27.904   7.462
65093W        W17989  21.033  31.721   1.776
65094W        W17990   7.533  16.814   8.648
65095W        W17991  12.291  31.728   9.702
65096W        W17992  12.323  14.233  10.316
65097W        W17993  25.016   8.578   0.286
65098W        W17994  14.091   3.690   7.909
65099W        W17995  18.540  26.711   1.468
65100W        W17996  30.035   0.675   9.943
65101W        W17997  32.645  17.581   0.490
65102W        W17998   5.829   2.699   9.348
65103W        W17999  18.243  17.731   1.377
65104W        W18000  19.107  30.815   7.829
65105W        W18001   3.142  25.638   0.461
65106W        W18002  23.115  16.263  10.065
65107W        W18003  31.673  20.725  10.179
65108W        W18004  14.590   8.103   3.356
65109W        W18005  12.156  16.852   0.636
65110W        W18006   9.329  15.882   1.780
65111W        W18007  24.014  17.742   1.807
65112W        W18008  20.323  24.256   1.941
65113W        W18009  10.799  35.597   9.961
65114W        W18010   0.579  34.575   9.852
65115W        W18011   4.602  15.619   8.369
65116W        W18012   0.077   3.743   8.834
65117W        W18013   1.003  33.115   1.873
65118W        W18014  33.585  20.169   1.050
65119W        W18015  28.268  28.116   7.535
65120W        W18016  35.587  29.184   0.408
65121W        W18017  35.070  16.096  10.216
65122W        W18018  29.643  26.811   1.512
65123W        W18019   8.177  15.080   8.144
65124W        W18020  29.770  25.875   1.770
65125W        W18021   9.414  35.004   7.412
65126W        W18022   9.899   1.883   2.651
65127W        W18023  11.145  33.414  10.022
65128W        W18024  25.490  34.545  10.309
65129W        W18025  28.416   1.197   9.614
65130W        W18026  31.567  32.785   1.738
65131W        W18027   8.840  15.210   2.568
65132W        W18028  14.629  32.695   1.060
65133W        W18029  15.734  11.277   3.007
65134W        W18030  12.327  14.835   9.145
65135W        W18031   8.563  32.452   9.281
65136W        W18032  26.846   7.628   1.808
65137W        W18033  17.521   4.454   8.761
65138W        W18034   2.954  19.348   9.537
65139W        W18035   1.540  13.192   0.721
65140W        W18036   5.638  25.069   0.496
65141W        W18037   8.231  13.574   2.794
65142W        W18038  24.970   8.150   1.540
65143W        W18039  23.835  14.750   9.663
65144W        W18040   9.092  27.297   7.480
65145W        W18041  20.393  26.104   1.589
65146W        W18042  35.016   1.762   0.565
65147W        W18043  28.560  27.842   1.860
65148W        W18044   5.739  24.049   7.315
65149W        W18045   7.956   9.729   1.330
65150W        W18046   5.641  23.951   9.146
65151W        W18047  32.995   0.022  10.175
65152W        W18048  34.000   7.089   1.272
65153W        W18049  13.557  25.643   9.679
65154W        W18050  33.403  17.957   9.192
65155W        W18051  25.481  28.497   8.723
65156W        W18052   3.716  30.737   2.876
65157W        W18053  34.058  32.752   0.639
65158W        W18054  33.642  32.696   8.672
65159W        W18055  13.707  32.229   2.870
65160W        W18056   3.090  26.407   1.177
65161W        W18057   8.528  22.020   0.950
65162W        W18058   5.613   4.836   7.982
65163W        W18059  11.442   1.799   1.284
65164W        W18060  20.184  33.171   2.520
65165W        W18061  15.001  11.481   7.426
65166W        W18062  20.413  29.470   3.002
65167W        W18063  27.284   9.735   8.290
65168W        W18064  16.758   3.922   1.746
65169W        W18065   7.602  20.899   8.124
65170W        W18066   8.354  21.580   0.304
65171W        W18067  25.424  21.102   0.814
65172W        W18068   3.100  17.009   2.166
65173W        W18069   4.967  33.591   8.892
65174W        W18070  22.990   6.496   0.119
65175W        W18071  30.969  18.670  10.096
65176W        W18072  33.813  23.380  10.334
65177W        W18073   6.159   1.733   8.720
65178W        W18074  10.034  24.795   2.506
65179W        W18075  26.948  16.789   3.587
65180W        W18076  35.873  22.569   1.274
65181W        W18077  22.372  16.593   1.830
65182W        W18078  12.099  35.304   2.500
65183W        W18079  32.914  27.353   2.915
65184W        W18080   5.276  16.990   3.031
65185W        W18081  15.714  34.794   9.495
65186W        W18082   4.137   7.101  10.081
65187W        W18083  32.080  26.200   0.788
65188W        W18084   2.874  18.307   8.917
65189W        W18085  28.393   4.872   2.115
65190W        W18086  19.143  26.555   0.312
65191W        W18087  18.041   3.389   8.276
65192W        W18088   3.420  21.382   3.509
65193W        W18089   6.658  27.577   7.352
65194W        W18090  20.305  13.030   8.259
65195W        W18091  11.175  35.198   1.470
65196W        W18092  35.298  29.605   8.328
65197W        W18093  34.462  14.358   2.585
65198W        W18094  17.876  19.844   0.579
65199W        W18095  25.866  30.148   8.212
65200W        W18096  25.690  33.963   1.920
65201W        W18097  22.823   7.354   0.302
65202W        W18098  23.638   6.641   7.781
65203W        W18099   0.451   1.616   8.551
65204W        W18100  26.618  17.186   2.147
65205W        W18101   4.970   6.043   2.478
65206W        W18102   6.875   3.784   3.144
65207W        W18103  30.590  22.597   1.533
65208W        W18104  32.843  19.613   9.208
65209W        W18105  23.197  28.196   9.924
65210W        W18106  27.976  15.284   0.489
65211W        W18107   7.878  17.625   1.732
65212W        W18108  26.209  16.856   9.964
65213W        W18109   2.781  16.750   0.965
65214W        W18110   9.802  24.840   0.634
65215W        W18111   1.363   6.287   9.387
65216W        W18112  14.288  34.422   2.651
65217W        W18113  28.827  22.057   9.339
65218W        W18114  12.763  22.257  10.088
65219W        W18115  21.871   9.986   2.176
65220W        W18116   8.985  24.926   8.565
65221W        W18117  24.800  25.393   8.055
65222W        W18118  26.274   9.652   9.318
65223W        W18119  31.775  17.450   1.383
65224W        W18120   7.484   9.017   1.640
65225W        W18121  21.038  30.126   2.898
65226W        W18122  17.445   6.808   2.740
65227W        W18123   5.415   6.732   0.612
65228W        W18124   2.681   4.021   2.551
65229W        W18125  25.378   1.634   9.619
65230W        W18126  21.965  18.884   0.453
65231W        W18127  14.887   7.826   1.345
65232W        W18128   8.549  26.652   2.025
65233W        W18129  19.772   9.974   2.636
65234W        W18130  31.106  10.046   9.404
65235W        W18131  21.034  24.689   7.669
65236W        W18132  17.071  12.585   8.059
65237W        W18133  17.739  22.000   2.706
65238W        W18134  14.625  23.651   3.183
65239W        W18135   1.474  35.340   8.104
65240W        W18136  25.510  29.198   7.102
65241W        W18137   3.341  26.503   3.412
65242W        W18138   6.733  35.494   2.966
65243W        W18139  28.739  20.587   7.591
65244W        W18140   0.532  18.029   1.257
65245W        W18141   2.685  29.338   3.766
65246W        W18142  23.294   1.917   7.290
65247W        W18143  17.490  15.278   3.555
65248W        W18144  24.460  26.691   2.608
65249W        W18145  29.439  34.944   1.868
65250W        W18146   2.187  18.961   2.189
65251W        W18147   4.643  19.846   1.847
65252W        W18148  16.607   4.386   2.111
65253W        W18149  21.967  29.329   1.546
65254W        W18150  32.437  10.217   1.626
65255W        W18151  16.355   6.549   7.683
65256W        W18152   1.729  20.227  10.109
65257W        W18153  29.457  24.996   1.172
65258W        W18154  31.956   1.488   8.847
65259W        W18155   6.236  19.599   1.737
65260W        W18156  18.371  23.506   3.089
65261W        W18157  13.350   7.985   3.095
65262W        W18158  30.939   0.428   0.050
65263W        W18159  19.271  10.225   1.935
65264W        W18160   9.182  35.099   9.879
65265W        W18161  31.586   2.238   9.378
65266W        W18162   2.457  20.997   2.128
65267W        W18163  22.630  23.215   9.023
65268W        W18164  13.553   0.981   1.340
65269W        W18165  12.884  24.957   8.568
65270W        W18166  26.929  33.242   0.576
65271W        W18167  24.482  34.736   7.386
65272W        W18168  20.209  21.271   0.219
65273W        W18169  20.881  20.450   1.446
65274W        W18170   6.658  18.553   3.243
65275W        W18171  13.853  13.580   9.567
65276W        W18172  32.083  32.350   7.909
65277W        W18173   1.195   1.648   2.098
65278W        W18174   4.703  22.779   2.656
65279W        W18175   6.320  15.793   1.026
65280W        W18176  29.955  30.008   7.155
65281W        W18177  23.603  31.462   0.484
65282W        W18178  24.171   4.346   7.902
65283W        W18179  31.855  11.447   7.861
65284W        W18180  18.422   3.755   8.937
65285W        W18181  24.778  21.707   7.728
65286W        W18182  23.995  27.469   3.184
65287W        W18183  17.935  32.954   8.530
65288W        W18184  10.249  15.081  10.010
65289W        W18185   7.294  26.292   8.188
65290W        W18186  24.706  32.175   8.010
65291W        W18187  29.609  14.740   0.609
65292W        W18188  33.817  10.231   2.181
65293W        W18189  13.521  31.609   9.011
65294W        W18190  21.776  13.256   1.864
65295W        W18191  31.241   1.883   1.327
65296W        W18192   5.920  34.183   7.556
65297W        W18193  13.087  35.923   1.723
65298W        W18194  20.026  32.955   1.638
65299W        W18195   2.091   3.931  10.013
65300W        W18196   3.797   6.090   0.579
65301W        W18197  19.756  33.306   8.283
65302W        W18198   5.359   9.833   2.146
65303W        W18199  14.838   3.954   1.252
65304W        W18200  32.609  28.434   8.856
65305W        W18201  27.550   6.262   2.700
65306W        W18202  32.201  10.597   2.279
65307W        W18203  30.939   3.924   2.047
65308W        W18204  21.350  21.071   8.835
65309W        W18205   9.579  22.794   9.234
65310W        W18206   2.594  13.866   0.183
65311W        W18207  23.128  15.869   9.101
65312W        W18208  12.505  10.771  10.041
65313W        W18209  19.718  34.042   8.681
65314W        W18210   5.622  11.120   8.218
65315W        W18211  35.084  26.536   8.221
65316W        W18212  13.160  33.280   3.018
65317W        W18213  34.349   5.908   8.209
65318W        W18214  33.675   3.295  10.257
65319W        W18215  32.816   1.908   1.006
65320W        W18216   9.129   5.710  10.305
65321W        W18217  19.056   8.639   8.767
65322W        W18218  32.407  13.288   1.519
65323W        W18219  30.969  13.690   9.510
65324W        W18220  27.308  10.238   0.679
65325W        W18221  10.611  31.863   0.878
65326W        W18222   0.918   4.317   9.869
65327W        W18223  13.234   1.380   9.669
65328W        W18224  10.499   6.340   1.423
65329W        W18225  10.320  33.736   2.314
65330W        W18226  32.872  27.849   3.151
65331W        W18227  10.650  16.757   7.983
65332W        W18228  31.464  22.818   2.592
65333W        W18229   0.652  12.066   3.678
65334W        W18230  34.908  28.341   2.845
65335W        W18231   1.042  21.139   8.316
65336W        W18232  28.317  24.427   0.129
65337W        W18233  12.049  29.329   1.427
65338W        W18234   5.296   2.215   2.830
65339W        W18235  25.723  24.056   0.171
65340W        W18236  18.302  28.524   2.021
65341W        W18237  19.734  35.401   0.840
65342W        W18238  31.569  28.418   9.794
65343W        W18239  22.539   6.657   2.060
65344W        W18240  17.548  17.028   9.724
65345W        W18241  18.063   5.465   3.251
65346W        W18242   4.413   8.889   3.289
65347W        W18243  30.054  29.882   2.194
65348W        W18244  25.174  19.996   9.846
65349W        W18245  10.424  10.722   1.121
65350W        W18246   7.909   9.612   0.834
65351W        W18247  34.272  30.932   0.567
65352W        W18248  19.535   3.997   4.109
65353W        W18249   8.220  26.266   8.397
65354W        W18250   7.612  11.794   8.801
65355W        W18251  11.300  33.435   8.762
65356W        W18252  17.268   5.052   2.097
65357W        W18253  21.636  17.912   9.062
65358W        W18254  13.979  34.316   2.298
65359W        W18255   0.749  22.322   9.483
65360W        W18256  11.400  19.269   1.874
65361W        W18257  28.113  31.932   6.745
65362W        W18258   0.819  24.263   1.504
65363W        W18259  22.206  13.203   9.232
65364W        W18260   2.392  16.860   2.778
65365W        W18261   7.129  33.970   8.121
65366W        W18262  31.664   0.395   1.804
65367W        W18263  29.371  17.591   2.711
65368W        W18264   5.789  29.063   1.424
65369W        W18265  16.114  15.035   2.661
65370W        W18266   1.278  19.118   0.191
65371W        W18267  14.429  30.603   3.078
65372W        W18268  33.592  27.929   9.245
65373W        W18269  14.266   9.402   9.215
65374W        W18270  25.136  32.940   2.588
65375W        W18271  26.998  32.538   9.714
65376W        W18272  32.287  19.815   2.691
65377W        W18273  21.510  13.068   4.012
65378W        W18274  32.720  15.029   1.208
65379W        W18275  19.402   4.342   0.676
65380W        W18276  19.878   4.646   1.486
65381W        W18277  27.868   9.265   3.285
65382W        W18278  27.110  10.115   9.727
65383W        W18279  15.217  13.667   2.558
65384W        W18280   5.002  14.381   0.459
65385W        W18281  27.720  25.507   1.057
65386W        W18282  21.278  24.417   3.474
65387W        W18283  20.704  10.332   0.481
65388W        W18284  22.219  18.611   8.488
65389W        W18285   1.289  21.735   0.277
65390W        W18286   3.079  20.810   1.011
65391W        W18287  30.557  35.390   2.284
65392W        W18288  28.651   6.216   2.304
65393W        W18289   0.941   1.700   0.995
65394W        W18290  34.070  34.297   3.230
65395W        W18291  28.452   0.660   9.233
65396W        W18292   0.665   6.666   0.828
65397W        W18293   7.506  30.512   7.961
65398W        W18294  21.411  12.552   8.486
65399W        W18295  13.465   4.531   3.544
65400W        W18296   3.250  14.811   9.742
65401W        W18297  24.349  28.376   7.887
65402W        W18298  30.720  16.512   0.490
65403W        W18299   4.153   1.519   3.309
65404W        W18300  26.902  26.260   1.496
65405W        W18301  11.345  28.418   1.909
65406W        W18302  16.572   5.970   9.959
65407W        W18303  18.032  17.208   0.183
65408W        W18304  28.554  17.396   9.310
65409W        W18305   9.432   0.364   7.573
65410W        W18306   4.722  14.797   8.804
65411W        W18307  23.876  23.299  10.272
65412W        W18308  31.422  24.850   9.796
65413W        W18309  22.123  33.329   8.952
65414W        W18310  25.468  28.874   0.903
65415W        W18311  24.373  20.474   2.685
65416W        W18312  30.645  32.980   0.263
65417W        W18313  22.161   7.232   2.342
65418W        W18314   7.308  26.944   2.648
65419W        W18315   1.915   3.777   8.260
65420W        W18316  26.731  30.482   1.907
65421W        W18317   7.750  17.105   1.924
65422W        W18318   7.568   2.893   1.271
65423W        W18319  25.729   8.094   8.599
65424W        W18320  32.299   0.817   7.358
65425W        W18321  30.842  30.653   9.003
65426W        W18322  19.228   3.482   9.294
65427W        W18323  24.638   9.134   9.434
65428W        W18324   8.329   4.804   8.802
65429W        W18325  34.201   3.524   9.262
65430W        W18326   2.341  23.585   8.456
65431W        W18327  15.077  33.568   1.291
65432W        W18328  33.291   4.325   2.836
65433W        W18329   2.729  13.145   9.456
65434W        W18330  11.795   4.530   6.990
65435W        W18331  29.487  21.244   9.050
65436W        W18332   5.456  10.016   9.951
65437W        W18333  16.040  24.986   3.130
65438W        W18334   4.378  18.864   8.700
65439W        W18335  15.665   7.732   9.442
65440W        W18336  24.511  15.527   8.729
65441W        W18337   6.203  34.788  10.013
65442W        W18338  25.725  11.762  10.246
65443W        W18339  12.965  34.892   2.634
65444W        W18340  15.466  18.143   9.739
65445W        W18341  14.593  25.960   9.522
65446W        W18342  15.009  34.217   2.886
65447W        W18343  23.057  20.140   1.029
65448W        W18344  19.225   4.312   1.138
65449W        W18345   6.770  15.884   3.103
65450W        W18346  24.382   7.726   8.518
65451W        W18347  24.310   3.664   1.514
65452W        W18348  22.079  15.286   7.819
65453W        W18349  29.239   6.325   2.705
65454W        W18350  13.702   7.321   8.530
65455W        W18351  24.029   2.719   8.841
65456W        W18352  34.698   1.300   7.038
65457W        W18353   7.504  21.455   2.112
65458W        W18354  13.490   5.190   1.209
65459W        W18355  34.604   2.701   7.526
65460W        W18356  34.689   8.668  10.023
65461W        W18357  33.814  16.253   8.236
65462W        W18358   7.654  33.580   9.810
65463W        W18359  17.732  13.060   8.527
65464W        W18360  17.223   9.810   0.991
65465W        W18361  11.060  29.300   9.446
65466W        W18362  21.045  12.743   8.260
65467W        W18363  16.168  34.293   7.363
65468W        W18364  10.085   0.403   0.195
65469W        W18365  23.599  29.775   8.806
65470W        W18366   8.526  19.421   2.448
65471W        W18367  18.207  12.126   7.491
65472W        W18368   6.857  28.773   6.881
65473W        W18369  12.998   6.568   0.038
65474W        W18370  19.461  15.607   0.499
65475W        W18371   5.861  23.966   1.423
65476W        W18372  14.302   8.717   1.891
65477W        W18373  32.530  28.312   0.652
65478W        W18374  24.731  16.274  10.057
65479W        W18375   5.331   6.611   8.519
65480W        W18376  21.192  24.833   3.160
65481W        W18377  20.775  16.634   9.048
65482W        W18378   1.566  16.300   8.153
65483W        W18379  29.512  16.919   0.841
65484W        W18380  34.432  18.056   9.045
65485W        W18381  33.900  34.720   0.844
65486W        W18382  30.496  13.448   3.352
65487W        W18383  17.879  17.068   0.667
65488W        W18384   5.033  31.539   1.886
65489W        W18385  28.882  19.545   2.058
65490W        W18386  13.048  33.006   8.117
65491W        W18387  13.347  11.122   1.802
65492W        W18388   6.184  17.342   2.904
65493W        W18389   4.873  23.388   0.596
65494W        W18390  14.601  18.532   8.924
65495W        W18391   4.917  25.642   0.213
65496W        W18392  29.292  30.031   9.476
65497W        W18393  28.260  22.123   9.496
65498W        W18394  19.132   0.267   2.653
65499W        W18395  29.843  19.846   8.503
65500W        W18396  18.349  10.918   0.396
65501W        W18397   3.711  18.502   1.366
65502W        W18398  17.864  11.867   9.603
65503W        W18399  35.981  15.047   2.965
65504W        W18400  20.041  26.341   8.287
65505W        W18401  17.936  32.023   7.881
65506W        W18402   4.373  31.870   9.513
65507W        W18403  10.770   9.374   2.803
65508W        W18404  17.478   0.545   0.351
65509W        W18405  33.053  18.892  10.297
65510W        W18406  11.277  11.935   8.561
65511W        W18407  33.628  24.770   7.909
65512W        W18408  26.613  13.160   9.004
65513W        W18409  23.257  21.735   2.514
65514W        W18410  26.866  27.455   9.560
65515W        W18411  22.822  35.052   1.511
65516W        W18412   0.229  28.335   1.136
65517W        W18413  29.907  23.424   8.240
65518W        W18414  19.507  19.893   1.652
65519W        W18415  10.165  11.402   1.971
65520W        W18416  31.335  18.316  10.233
65521W        W18417  12.015  15.744  10.329
65522W        W18418  14.051   1.351   1.411
65523W        W18419  28.072   8.308   3.056
65524W        W18420   9.073   4.075   1.262
65525W        W18421  19.776  20.693   9.775
65526W        W18422   1.250   1.994   0.730
65527W        W18423  28.684  11.731   1.221
65528W        W18424  34.333  20.135   8.121
65529W        W18425  25.428   8.668   8.491
65530W        W18426   1.621  34.654   1.519
65531W        W18427  33.761   8.325   7.423
65532W        W18428  32.810  28.698   9.865
65533W        W18429  25.322  24.554   9.004
65534W        W18430   7.626  29.862   7.486
65535W        W18431  18.548  11.452   0.457
65536W        W18432  18.747   2.199   1.744
65537W        W18433   4.078  11.465   0.266
65538W        W18434  20.232  30.414   9.640
65539W        W18435  21.277  16.527   9.580
65540W        W18436  30.271   4.305   1.683
65541W        W18437  13.806   6.993   1.170
65542W        W18438  19.539  28.715   0.584
65543W        W18439  29.146  16.852   3.357
65544W        W18440  17.821  14.641   2.601
65545W        W18441  15.122  10.401   7.402
65546W        W18442  29.738  32.098   8.886
65547W        W18443  26.426  33.470   9.042
65548W        W18444  11.343  23.060   0.221
65549W        W18445  25.911  33.802   2.403
65550W        W18446  20.122  13.699   2.661
65551W        W18447  17.683   2.045   8.482
65552W        W18448  27.511  13.346   1.471
65553W        W18449   8.012  31.818   2.954
65554W        W18450  32.845   2.386   9.262
65555W        W18451   3.421   7.112   8.840
65556W        W18452  34.319  17.878   3.432
65557W        W18453  17.747   1.885   7.334
65558W        W18454  35.038  24.796   3.116
65559W        W18455  35.295   5.213   1.984
65560W        W18456  29.601   6.906   3.312
65561W        W18457  21.121  18.989   0.015
65562W        W18458  16.738  20.974   9.597
65563W        W18459   5.175   1.920   0.346
65564W        W18460  28.351   1.089   8.999
65565W        W18461  15.961  35.280   0.063
65566W        W18462  11.512  26.796   0.699
65567W        W18463  17.489   2.408   2.527
65568W        W18464   3.334   5.246   8.773
65569W        W18465  24.039  18.216   8.943
65570W        W18466  12.018   1.844   8.493
65571W        W18467  21.786  17.458   2.054
65572W        W18468  28.170  20.167   8.193
65573W        W18469  12.868  17.178   9.741
65574W        W18470   6.646   9.175   7.669
65575W        W18471   9.924  22.479  10.109
65576W        W18472   3.447  18.190   8.859
65577W        W18473  14.973  26.987   1.397
65578W        W18474   3.531   4.429   8.453
65579W        W18475  19.004   1.633   0.383
65580W        W18476  27.753   5.346   3.063
65581W        W18477  11.385  23.611   7.974
65582W        W18478  21.349  17.371   2.403
65583W        W18479  10.442  16.037   9.828
65584W        W18480   8.347   4.296   9.198
65585W        W18481   1.307  12.775   0.840
65586W        W18482   3.354  19.504   9.268
65587W        W18483   0.140   3.968   9.286
65588W        W18484   0.203  11.526   3.116
65589W        W18485  23.446   4.964   1.157
65590W        W18486  11.731  24.539   8.788
65591W        W18487  27.589   5.516   9.785
65592W        W18488   7.704   2.997   2.891
65593W        W18489  12.012  13.340   1.154
65594W        W18490  33.383  24.352   1.507
65595W        W18491  15.718   5.861   8.022
65596W        W18492  28.976  35.707   1.356
65597W        W18493  27.120  25.375   9.946
65598W        W18494  24.755  27.795   8.034
65599W        W18495   5.404  19.250   2.328
65600W        W18496  35.055  13.790   3.080
65601W        W18497   7.277  31.855   9.407
65602W        W18498  30.975  28.425   9.021
65603W        W18499  19.101  18.599   8.401
65604W        W18500   4.132  23.200   8.427
65605W        W18501  21.494  20.889   1.052
65606W        W18502   7.277  11.393   8.087
65607W        W18503  22.922  25.197   2.102
65608W        W18504   4.480  12.192   2.713
65609W        W18505  26.077   4.618   3.268
65610W        W18506  19.833   6.822   3.053
65611W        W18507   0.840  14.945   1.253
65612W        W18508   6.781   0.722   1.729
65613W        W18509  23.504  11.806   2.613
65614W        W18510  35.321  32.813   9.211
65615W        W18511  22.147  20.184   3.341
65616W        W18512  21.750  10.997   1.596
65617W        W18513  26.217  32.447   2.022
65618W        W18514  16.643  22.195   9.602
65619W        W18515  18.769  12.086   8.153
65620W        W18516  13.574  31.198   3.049
65621W        W18517  27.358  35.716   9.071
65622W        W18518  25.799  11.178   9.920
65623W        W18519   7.246  19.685   1.869
65624W        W18520  24.656  25.086   8.954
65625W        W18521  33.661   0.011   0.405
65626W        W18522  32.747  30.684   0.980
65627W        W18523  31.635   3.439   2.240
65628W        W18524   9.927   9.290   9.113
65629W        W18525   4.755  28.657   0.419
65630W        W18526  10.867  16.075   3.261
65631W        W18527   1.712  22.293   1.311
65632W        W18528   8.426  21.270   9.193
65633W        W18529  26.412  32.423   2.848
65634W        W18530   8.742  10.764   3.257
65635W        W18531  19.630  16.306   0.382
65636W        W18532  15.787  29.157   7.282
65637W        W18533   8.504  25.768   8.129
65638W        W18534   9.355  11.084   8.944
65639W        W18535  15.857   3.133   1.375
65640W        W18536  35.807  10.137   1.615
65641W        W18537   4.397   4.308   8.920
65642W        W18538   0.202  23.629   2.776
65643W        W18539  18.564   0.103  10.318
65644W        W18540  23.719  34.794   2.257
65645W        W18541  25.099   4.657   9.817
65646W        W18542  27.929  24.137  10.284
65647W        W18543  10.659  15.463   9.749
65648W        W18544  34.837   7.461   1.537
65649W        W18545   6.875   1.913   8.021
65650W        W18546  20.553  23.059   1.036
65651W        W18547  26.851  31.172   8.658
65652W        W18548  15.703  23.190   3.633
65653W        W18549  34.653   4.057  10.231
65654W        W18550  21.116  12.468   2.644
65655W        W18551   5.840   2.252   7.331
65656W        W18552  13.336   4.541   2.131
65657W        W18553   4.207  14.201   2.665
65658W        W18554  22.143  14.174   8.862
65659W        W18555  12.149   3.662   0.726
65660W        W18556  33.206  11.886   7.538
65661W        W18557  28.772  27.568   0.235
65662W        W18558  23.193   3.388   8.725
65663W        W18559  26.544   2.972   2.789
65664W        W18560  30.674  25.027   9.203
65665W        W18561   4.962   8.274   1.071
65666W        W18562  29.409   3.439   3.427
65667W        W18563  34.420   5.669   3.314
65668W        W18564  15.351  22.040   9.683
65669W        W18565  17.587  25.515   9.102
65670W        W18566  31.235  11.575   0.602
65671W        W18567  29.251  11.832   2.840
65672W        W18568  21.056  18.724   9.425
65673W        W18569   7.294  21.158   8.663
65674W        W18570   9.732  34.716   1.096
65675W        W18571  21.275  19.966   1.542
65676W        W18572  16.617  23.263   8.775
65677W        W18573   0.786  25.002   2.838
65678W        W18574   4.601  29.120   1.231
65679W        W18575  31.898  23.103   1.743
65680W        W18576  17.806  35.062   9.557
65681W        W18577  34.073  21.243   2.424
65682W        W18578   9.149  25.222   8.942
65683W        W18579   8.735  31.067   2.149
65684W        W18580  19.626   0.400   8.812
65685W        W18581  10.184   4.312   7.602
65686W        W18582  34.523  20.236   0.618
65687W        W18583  27.450   3.589   3.596
65688W        W18584  10.050  29.460   0.738
65689W        W18585  17.586  20.528   8.540
65690W        W18586  21.071  22.897   2.531
65691W        W18587  12.725  20.284  10.124
65692W        W18588  29.482  22.648   8.294
65693W        W18589  26.153  24.229   0.126
65694W        W18590  12.137  34.869   2.764
65695W        W18591   6.627  18.436   8.721
65696W        W18592  27.564   1.724   0.225
65697W        W18593   1.775  17.870   9.718
65698W        W18594   8.734  21.113   0.995
65699W        W18595  33.023  27.297  10.216
65700W        W18596  24.915  13.389   0.700
65701W        W18597   7.224  22.304   3.573
65702W        W18598   4.956   5.800   8.387
65703W        W18599  20.505  24.306   2.455
65704W        W18600  26.044  25.790  10.334
65705W        W18601   4.906  22.934   3.115
65706W        W18602  33.566   6.960   8.447
65707W        W18603   4.378  12.432   2.023
65708W        W18604  31.543  35.501   8.298
65709W        W18605  21.463   0.115   2.731
65710W        W18606  25.855  25.078   8.661
65711W        W18607  10.255  34.587   6.866
65712W        W18608  16.261   2.335   8.252
65713W        W18609  14.809   3.441   0.695
65714W        W18610  25.153   4.580   3.178
65715W        W18611  18.033   8.022  10.113
65716W        W18612   0.423  34.346   1.050
65717W        W18613   8.998  15.836   0.849
65718W        W18614  30.172  21.087   7.757
65719W        W18615  28.322  31.979   7.668
65720W        W18616  16.289  35.998   9.975
65721W        W18617   2.798  11.531   0.878
65722W        W18618   7.602  14.087   1.343
65723W        W18619  11.170   3.057   8.488
65724W        W18620  13.276  21.880   0.797
65725W        W18621  25.642  26.907   9.350
65726W        W18622  11.847   3.666   7.861
65727W        W18623  20.424   5.061   2.594
65728W        W18624   9.715  11.060   8.595
65729W        W18625  18.359  16.433   3.462
65730W        W18626   8.682  20.181   1.007
65731W        W18627  13.802   1.877   9.936
65732W        W18628   3.826  25.775   2.831
65733W        W18629  21.940   4.405   7.369
65734W        W18630   3.024  20.172   9.839
65735W        W18631   4.113  24.631  10.042
65736W        W18632  19.729  15.333   0.877
65737W        W18633  20.836  30.854   1.558
65738W        W18634  15.207  15.951   9.683
65739W        W18635  35.728  26.013   3.005
65740W        W18636  25.882  25.876   0.993
65741W        W18637  34.663   9.326   8.054
65742W        W18638  28.016  31.006   8.108
65743W        W18639   9.498  21.254   1.154
65744W        W18640  34.652  17.014   2.492
65745W        W18641  20.547   4.746   2.205
65746W        W18642   9.676  29.401   7.233
65747W        W18643  11.057  19.096   1.061
65748W        W18644  16.396   7.738   9.305
65749W        W18645   4.196   9.799   1.121
65750W        W18646   8.948  20.142  10.283
65751W        W18647  23.188  30.139  10.088
65752W        W18648  27.569  21.329   7.615
65753W        W18649  23.849  33.541   3.415
65754W        W18650   8.368  14.161   8.268
65755W        W18651  19.859   1.067   8.594
65756W        W18652   0.006   9.884   8.141
65757W        W18653  35.397  35.828   9.283
65758W        W18654  34.185  33.297   1.848
65759W        W18655   9.905  32.086   9.995
65760W        W18656  18.368  17.569  10.216
65761W        W18657   8.981  15.133   9.079
65762W        W18658   0.219  35.199   0.544
65763W        W18659  23.789   3.770   9.014
65764W        W18660  25.299  21.571   2.523
65765W        W18661  35.881   3.885   2.453
65766W        W18662   8.217  31.463   1.010
65767W        W18663  17.767   5.999   2.225
65768W        W18664   6.696   0.554   3.605
65769W        W18665  14.688   3.323   7.992
65770W        W18666  25.816  18.466   2.249
65771W        W18667   5.774   9.061   2.930
65772W        W18668   2.252  18.456   0.774
65773W        W18669  23.894   6.119   0.256
65774W        W18670   1.390   9.527   3.017
65775W        W18671  15.813   3.124   0.869
65776W        W18672  28.882  15.383   0.501
65777W        W18673  14.615  11.360   7.763
65778W        W18674  16.741  26.158   3.167
65779W        W18675  32.839   7.341   0.520
65780W        W18676  26.199  22.521   2.642
65781W        W18677   0.340  26.422   9.953
65782W        W18678   7.670   4.942   1.824
65783W        W18679   9.693   5.328   2.337
65784W        W18680   7.376  14.837   9.217
65785W        W18681  20.674  28.488   1.080
65786W        W18682  31.033  22.202   1.402
65787W        W18683  29.165  19.027  10.164
65788W        W18684   0.783  32.130   1.859
65789W        W18685   5.465  32.578   2.757
65790W        W18686  35.742  30.810   8.639
65791W        W18687  32.837  21.590   1.409
65792W        W18688  26.240  21.956   3.304
65793W        W18689  24.959  20.732   8.892
65794W        W18690   2.085  29.671   3.668
65795W        W18691  18.989  35.936   1.431
65796W        W18692  16.176   1.458   7.054
65797W        W18693  30.935  33.683   2.378
65798W        W18694  28.131   8.520   0.232
65799W        W18695  28.472   7.116   7.865
65800W        W18696  35.548  31.734   1.661
65801W        W18697  25.700  12.837   2.105
65802W        W18698  20.090  14.678   2.624
65803W        W18699   4.684  15.706  10.001
65804W        W18700  13.425   5.016   2.842
65805W        W18701  29.169   6.760   1.790
65806W        W18702   3.238  13.749  10.118
65807W        W18703  14.619   5.675   3.083
65808W        W18704   0.965  34.975   8.265
65809W        W18705  15.863  19.314   1.682
65810W        W18706   8.315  21.355   8.642
65811W        W18707  13.825  20.487   9.018
65812W        W18708   5.590  23.953   0.923
65813W        W18709  13.207  34.043   2.981
65814W        W18710  34.909  20.919   2.668
65815W        W18711  12.631  24.771   6.928
65816W        W18712  33.663  35.258   2.425
65817W        W18713  13.969  29.353   1.782
65818W        W18714   7.646   8.831   1.139
65819W        W18715  10.402  11.685   9.623
65820W        W18716   4.312  21.221   1.950
65821W        W18717  14.723  15.412   0.062
65822W        W18718   8.479  19.218   1.142
65823W        W18719  14.501  25.514   9.309
65824W        W18720  23.593  33.937   3.600
65825W        W18721   7.123  16.014   1.538
65826W        W18722  35.533  27.913   9.242
65827W        W18723  12.708   4.704   7.225
65828W        W18724  24.331   3.602   9.165
65829W        W18725  14.527  25.046   7.975
65830W        W18726   8.192   7.125   8.978
65831W        W18727  18.624  13.519  10.337
65832W        W18728   6.361   0.763   8.943
65833W        W18729  12.996  35.908   9.135
65834W        W18730   6.985  18.732   0.481
65835W        W18731  13.588  33.056   0.633
65836W        W18732  12.241  30.140   0.979
65837W        W18733  30.083  14.536   3.160
65838W        W18734  19.067  12.624   8.635
65839W        W18735  31.171  25.987   0.015
65840W        W18736  11.546   7.170  10.043
65841W        W18737   5.619   4.557  10.166
65842W        W18738  12.689  34.140   0.233
65843W        W18739  27.196  17.050   8.586
65844W        W18740  29.741  16.877   0.040
65845W        W18741  28.330   6.639   0.554
65846W        W18742  24.481  15.293   1.078
65847W        W18743  17.468  31.596   1.993
65848W        W18744  27.258   9.372   2.761
65849W        W18745  11.402  24.236   9.747
65850W        W18746  25.617   5.615   1.205
65851W        W18747  27.399   8.594   9.724
65852W        W18748  14.890  11.416   3.264
65853W        W18749  16.199  22.059   1.113
65854W        W18750   2.156   7.812   8.057
65855W        W18751  12.590  28.817  10.313
65856W        W18752   5.520  12.059   1.315
65857W        W18753  26.876  11.242   2.071
65858W        W18754   4.498  32.662   1.159
65859W        W18755   8.033  16.781   9.560
65860W        W18756   7.620  14.198   7.645
65861W        W18757  11.862  34.894   7.260
65862W        W18758   9.388  22.393   0.763
65863W        W18759  33.341   7.894   2.654
65864W        W18760  14.193  19.786   1.595
65865W        W18761  17.184  35.753   1.826
65866W        W18762  35.174  32.556   2.150
65867W        W18763   9.080  31.330   8.779
65868W        W18764   3.824  30.718   8.677
65869W        W18765  33.807  35.179   0.757
65870W        W18766  34.609   7.822   1.043
65871W        W18767  12.206  35.094   8.090
65872W        W18768  23.236  23.386   1.584
65873W        W18769  35.539  17.830   0.413
65874W        W18770  21.617  31.585   2.952
65875W        W18771  11.542  17.969   8.320
65876W        W18772  15.232  16.734   0.351
65877W        W18773  27.572  28.560  10.067
65878W        W18774  27.672  31.330   8.466
65879W        W18775   5.092   7.487   9.846
65880W        W18776   4.058  36.000   9.050
65881W        W18777  34.919  11.570   2.026
65882W        W18778  17.125  26.277   1.907
65883W        W18779  31.277  20.072   1.458
65884W        W18780   3.491  14.357   8.867
65885W        W18781  22.831   6.345   0.569
65886W        W18782  35.816   5.782   8.089
65887W        W18783  23.620   1.701   1.685
65888W        W18784  13.704   5.984   8.643
65889W        W18785  27.209   1.898   7.557
65890W        W18786  12.474  10.568   8.342
65891W        W18787  15.393  26.154   7.795
65892W        W18788  18.295  19.276   3.302
65893W        W18789  20.647  26.917   9.520
65894W        W18790  25.772  20.697   0.703
65895W        W18791  13.951   4.127   1.056
65896W        W18792  10.421  25.570   1.465
65897W        W18793  24.864  18.632   8.482
65898W        W18794  20.628  19.356   2.231
65899W        W18795  25.802   2.097   0.076
65900W        W18796  33.838  29.026   1.429
65901W        W18797  35.345  16.830   8.556
65902W        W18798  34.843   6.110   8.038
65903W        W18799  32.495  35.759   9.511
65904W        W18800  29.251  18.768   2.159
65905W        W18801  33.575  12.381   9.469
65906W        W18802   3.423  26.648   0.258
65907W        W18803  34.288  22.209   2.038
65908W        W18804  11.945  15.485   3.006
65909W        W18805  31.574  20.346   1.836
65910W        W18806   8.347  23.601   8.725
65911W        W18807   1.407   1.466   0.927
65912W        W18808   4.004  18.731   9.407
65913W        W18809  16.362  31.413   9.178
65914W        W18810  13.596   3.392   1.218
65915W        W18811  34.762  25.855   0.707
65916W        W18812  32.777   9.504   9.369
65917W        W18813   0.061  18.441   7.410
65918W        W18814  19.279   2.221   1.334
65919W        W18815  12.976  21.757   8.261
65920W        W18816  32.474  10.750   9.722
65921W        W18817   3.224   7.816   8.962
65922W        W18818   0.008   4.995   2.505
65923W        W18819  27.095  27.004   9.888
65924W        W18820  26.227  15.200   2.314
65925W        W18821  30.986  28.259   1.990
65926W        W18822   9.641   0.545  10.267
65927W        W18823  15.611  13.369   9.363
65928W        W18824   6.889  21.801   8.836
65929W        W18825   5.690  11.306   8.656
65930W        W18826   5.334   0.551  10.219
65931W        W18827  19.635  14.437   0.862
65932W        W18828  29.043  19.182   8.919
65933W        W18829  33.812  26.827   8.430
65934W        W18830  17.465   9.716   7.670
65935W        W18831  31.394  11.377   1.466
65936W        W18832  17.310   0.814   8.583
65937W        W18833   5.337  27.440   0.421
65938W        W18834  15.747  11.776   1.319
65939W        W18835  32.971  12.689   2.246
65940W        W18836  10.432  33.290   8.701
65941W        W18837   7.398  30.506   9.012
65942W        W18838  10.833  35.109   9.608
65943W        W18839   1.667  28.444   1.709
65944W        W18840   8.404  32.021   8.390
65945W        W18841   5.859  21.773   8.668
65946W        W18842   5.794  25.189   0.037
65947W        W18843   0.361  20.379   8.776
65948W        W18844  28.289  17.461   1.830
65949W        W18845  16.544  29.268   2.828
65950W        W18846  21.609  25.826   7.415
65951W        W18847  19.729  18.816   3.792
65952W        W18848  21.111   9.711   9.040
65953W        W18849   9.891  21.142   0.813
65954W        W18850   0.450  15.733   4.016
65955W        W18851  25.080   8.935   8.858
65956W        W18852  24.305  10.214  10.115
65957W        W18853   8.123  27.443   9.274
65958W        W18854   4.034  10.788   2.412
65959W        W18855  25.451  14.090   0.768
65960W        W18856  28.065   1.688   0.225
65961W        W18857   9.885  12.539   0.508
65962W        W18858   0.718   2.183   1.022
65963W        W18859  10.510  33.716   2.798
65964W        W18860  32.572  20.024   3.100
65965W        W18861   3.488  13.827   2.370
65966W        W18862  34.958   3.681   2.086
65967W        W18863  28.579   4.013   1.818
65968W        W18864   3.754  20.510  10.191
65969W        W18865  28.314  22.428   2.950
65970W        W18866  31.106  28.537   1.485
65971W        W18867  25.096  35.477   8.447
65972W        W18868  34.490   6.548   0.626
65973W        W18869   4.468  11.817   8.571
65974W        W18870   8.172   9.070   0.472
65975W        W18871  26.959  26.921   1.127
65976W        W18872  24.016   2.497   3.383
65977W        W18873   2.121  11.775   2.439
65978W        W18874   4.323   9.357   0.909
65979W        W18875  23.132   9.118   9.093
65980W        W18876  11.983  10.727   1.284
65981W        W18877  16.072   4.863   9.595
65982W        W18878  30.213  33.063  10.312
65983W        W18879   0.189  12.525  10.020
65984W        W18880  33.255  31.563   2.829
65985W        W18881  32.723   0.311   0.146
65986W        W18882  24.167  25.655   7.060
65987W        W18883  31.525  24.939   8.770
65988W        W18884   9.398   3.787   7.924
65989W        W18885   0.622  28.580   0.329
65990W        W18886  34.358  29.174   2.894
65991W        W18887  17.696  29.746   1.239
65992W        W18888   3.624  22.677   0.834
65993W        W18889  13.045  19.152   2.321
65994W        W18890  25.409  25.287   2.903
65995W        W18891  27.153  34.058   9.307
65996W        W18892   7.407  24.446   8.578
65997W        W18893  30.501   2.330   2.955
65998W        W18894  30.492   0.728   0.356
65999W        W18895  34.346  28.761   3.473
66000W        W18896  12.050  26.696   0.985
66001W        W18897  33.649   3.003   2.238
66002W        W18898  19.504   4.572  10.168
66003W        W18899  35.939  21.400   2.914
66004W        W18900   2.651  18.907   2.011
66005W        W18901  10.500  12.731   2.636
66006W        W18902   9.143  23.692   9.319
66007W        W18903   7.727  19.061   8.181
66008W        W18904  34.973  20.664   9.390
66009W        W18905  11.440  32.025   1.795
66010W        W18906  30.001  25.830  10.182
66011W        W18907  12.549   7.413   0.531
66012W        W18908   2.471  14.748   1.619
66013W        W18909  23.483  19.484   9.775
66014W        W18910   9.653  20.879   7.868
66015W        W18911  14.369  27.918   1.083
66016W        W18912   6.743   1.351   0.202
66017W        W18913  17.778   0.184   7.369
66018W        W18914  19.556   8.284   2.509
66019W        W18915  12.991  20.451   9.694
66020W        W18916   0.860   5.604  10.064
66021W        W18917   6.096  13.974  10.171
66022W        W18918  23.898  28.880   0.964
66023W        W18919  34.885  11.009   7.969
66024W        W18920  28.627   6.226   8.809
66025W        W18921  18.091  25.276   8.946
66026W        W18922   7.585   0.545   9.541
66027W        W18923  17.458  31.573   9.989
66028W        W18924  18.927   3.169   2.916
66029W        W18925  12.268  25.109   1.238
66030W        W18926   1.335  23.703   3.451
66031W        W18927  27.743  23.645   1.294
66032W        W18928   2.289  24.318   0.638
66033W        W18929  23.940   1.785   2.115
66034W        W18930  20.401  19.063   1.831
66035W        W18931  31.729  33.157   7.793
66036W        W18932  10.772   9.109   4.123
66037W        W18933   4.975   6.887   0.873
66038W        W18934  27.484   5.002   0.558
66039W        W18935  27.768  24.586   0.672
66040W        W18936  25.283  14.899   1.047
66041W        W18937  19.693   1.692   9.615
66042W        W18938  28.128  10.454   8.271
66043W        W18939   0.052  28.651   9.782
66044W        W18940  22.803   7.422   9.587
66045W        W18941  11.196  31.557   0.962
66046W        W18942  14.564   5.458   0.664
66047W        W18943   3.973  18.177  10.021
66048W        W18944  10.166   9.073   0.582
66049W        W18945  19.053  31.500   9.146
66050W        W18946  25.043  24.691   0.761
66051W        W18947  15.116  28.563   7.824
66052W        W18948   1.240  22.836   2.900
66053W        W18949  28.807  15.896   2.515
66054W        W18950  35.709   5.737   1.286
66055W        W18951  21.464  21.990   1.711
66056W        W18952  15.648  14.189   8.147
66057W        W18953   7.607  29.359   9.958
66058W        W18954  13.917  33.341   1.452
66059W        W18955   1.146  22.406   1.620
66060W        W18956  26.227  23.433   2.617
66061W        W18957   1.489  32.754   2.306
66062W        W18958  17.064  14.052   9.159
66063W        W18959  10.482  17.511   8.480
66064W        W18960  23.811  12.380   8.561
66065W        W18961  12.626  34.539   7.783
66066W        W18962  24.065  33.041   2.723
66067W        W18963  29.786  25.022   7.363
66068W        W18964  28.813  23.538   0.149
66069W        W18965  12.505  26.994   8.201
66070W        W18966  23.476   0.562   1.136
66071W        W18967  35.181  33.175   8.879
66072W        W18968   9.879  15.837   9.206
66073W        W18969  16.063  18.374   3.366
66074W        W18970  17.367  29.888   0.846
66075W        W18971  15.679   8.663   8.433
66076W        W18972  19.986  27.359   2.278
66077W        W18973  28.714  31.647   1.357
66078W        W18974  24.314   8.633   0.872
66079W        W18975  10.266  27.179   0.466
66080W        W18976  35.623   8.943   8.618
66081W        W18977  17.071   7.691  10.017
66082W        W18978   6.807   0.534  10.095
66083W        W18979  11.282  30.907   8.062
66084W        W18980   5.115  23.018   8.320
66085W        W18981  30.669  21.160   3.305
66086W        W18982  13.297  32.437   2.518
66087W        W18983  15.618   4.081   2.907
66088W        W18984  10.384  27.327  10.240
66089W        W18985   8.400  22.489   3.117
66090W        W18986  16.840  15.577   0.209
66091W        W18987  18.721  25.618   2.397
66092W        W18988  35.455  34.475   7.583
66093W        W18989   5.169  26.814   0.103
66094W        W18990  23.108  35.481   0.700
66095W        W18991  17.547  12.320   3.562
66096W        W18992   0.245  31.176   8.032
66097W        W18993  19.070   5.173   8.590
66098W        W18994   4.563   5.242   8.995
66099W        W18995   4.503   8.609   0.183
66100W        W18996  21.048   6.680   2.370
66101W        W18997  22.142  12.288   0.470
66102W        W18998  15.010  21.513   0.846
66103W        W18999   7.050   5.448   0.941
66104W        W19000  15.917   7.316   0.551
66105W        W19001  30.219  14.117   1.897
66106W        W19002  26.996  13.468  10.323
66107W        W19003   5.579   8.418   7.880
66108W        W19004  21.307  30.761   1.206
66109W        W19005   0.329  14.556   8.861
66110W        W19006   1.267  34.698   0.493
66111W        W19007  27.024   6.009   2.031
66112W        W19008  11.674  19.777   0.791
66113W        W19009   3.148  26.834   8.247
66114W        W19010  10.808  23.288   0.511
66115W        W19011   4.578   9.890   9.132
66116W        W19012  33.583   5.496   9.537
66117W        W19013  32.759  18.374   9.785
66118W        W19014   6.064  14.338   7.561
66119W        W19015  27.756  30.556   7.880
66120W        W19016   2.972  21.045   8.172
66121W        W19017  11.624  14.520   9.720
66122W        W19018  26.675   7.331   8.014
66123W        W19019  32.381  19.812   8.990
66124W        W19020  16.928  29.704   2.453
66125W        W19021  31.070  13.312   2.515
66126W        W19022  14.611  21.482   7.542
66127W        W19023  16.506   4.212   1.147
66128W        W19024   6.249  22.304   2.156
66129W        W19025  17.619  34.542   7.718
66130W        W19026  35.004  32.528   0.871
66131W        W19027  35.372   2.516   9.352
66132W        W19028  27.163  14.733   9.951
66133W        W19029   3.017  30.222   9.337
66134W        W19030  29.771  12.462  10.152
66135W        W19031  29.838  17.564  10.072
66136W        W19032  11.152   5.752  10.255
66137W        W19033  15.655  14.643   9.374
66138W        W19034  13.484  29.248   0.868
66139W        W19035   9.284  29.222   6.869
66140W        W19036   5.087  10.411   1.954
66141W        W19037  30.142  20.845  10.228
66142W        W19038   4.844  19.416   1.970
66143W        W19039  23.537   9.081   1.867
66144W        W19040   2.372  15.654   3.341
66145W        W19041  20.956   1.249   0.012
66146W        W19042  31.575  11.042   8.506
66147W        W19043   5.375   4.601   0.294
66148W        W19044  19.976   8.572   7.786
66149W        W19045   0.809  16.808   8.432
66150W        W19046  17.018  32.854   7.298
66151W        W19047  20.042   8.190   9.323
66152W        W19048  18.471   0.134   9.038
66153W        W19049  32.814  30.123   1.652
66154W        W19050  16.584  32.612   9.815
66155W        W19051   7.507   0.446   8.648
66156W        W19052  28.168  14.797   8.549
66157W        W19053   1.551   3.421   1.112
66158W        W19054  22.308  22.018   1.022
66159W        W19055  29.478  25.802   9.843
66160W        W19056  26.729  21.895   9.010
66161W        W19057  34.958  29.912   1.590
66162W        W19058   0.583   2.623   9.521
66163W        W19059  30.431  10.299   9.647
66164W        W19060   5.865  20.037   9.114
66165W        W19061  24.644  21.483   0.359
66166W        W19062  17.933  17.041   8.787
66167W        W19063   6.110  16.183   1.341
66168W        W19064  30.992  10.484   7.918
66169W        W19065   1.619  27.686   8.258
66170W        W19066   6.612  19.131   7.851
66171W        W19067  19.852   3.457   2.211
66172W        W19068  26.746  16.564  10.085
66173W        W19069   6.893  19.964   9.427
66174W        W19070  34.172  19.813   1.413
66175W        W19071  27.483  35.628   2.004
66176W        W19072  29.796   8.425   1.385
66177W        W19073  11.562  23.603   8.454
66178W        W19074  19.407  14.644   8.456
66179W        W19075  26.972  13.387   8.715
66180W        W19076   9.407  31.503   2.518
66181W        W19077  26.473  15.611   0.719
66182W        W19078  10.341  14.327   2.927
66183W        W19079   3.236  14.577   2.854
66184W        W19080  30.290  27.585   0.577
66185W        W19081  31.230  15.198   1.240
66186W        W19082  20.537  29.907   2.196
66187W        W19083  29.219  17.185   0.435
66188W        W19084  20.505   1.402   1.923
66189W        W19085  17.413  32.003   9.668
66190W        W19086  12.741   0.106   0.462
66191W        W19087  24.742  29.072   7.109
66192W        W19088   5.261   8.243   1.908
66193W        W19089   6.539   3.517   2.792
66194W        W19090  20.300  10.534   1.980
66195W        W19091  35.873   2.568   1.186
66196W        W19092  24.417  30.176   9.069
66197W        W19093  14.085   4.992   0.608
66198W        W19094  25.155  13.726   2.398
66199W        W19095  23.303  21.464   1.946
66200W        W19096  15.577  29.819   0.220
66201W        W19097   1.590   1.125   8.189
66202W        W19098  18.942  11.816   2.927
66203W        W19099  32.903   6.048   1.949
66204W        W19100  17.721   4.865   3.371
66205W        W19101  15.027  29.163   0.706
66206W        W19102  27.935  28.519   0.958
66207W        W19103  35.159   4.159   9.107
66208W        W19104  22.398  19.559  10.280
66209W        W19105  18.821  24.507   8.494
66210W        W19106  18.578  31.448   9.447
66211W        W19107  13.223   6.019  10.305
66212W        W19108  30.547   0.408   9.978
66213W        W19109  17.209  34.049   0.480
66214W        W19110  24.166  24.845   1.313
66215W        W19111  11.571   0.347   0.097
66216W        W19112  33.685   5.358   8.682
66217W        W19113  22.432   6.442   9.301
66218W        W19114  11.573  24.950   0.564
66219W        W19115  19.927   8.740   3.118
66220W        W19116  27.798  30.950   2.503
66221W        W19117  12.185  30.588   1.171
66222W        W19118  24.380  19.218   2.401
66223W        W19119  12.892  28.850   9.934
66224W        W19120   5.999   5.628   8.121
66225W        W19121   0.915  29.963   8.435
66226W        W19122  15.193  18.965   9.273
66227W        W19123  34.415  28.467   1.920
66228W        W19124  28.616   9.640   8.016
66229W        W19125   4.759  27.791   1.174
66230W        W19126  23.614  22.468   9.289
66231W        W19127   2.035   9.229   7.801
66232W        W19128   6.476  34.009   2.113
66233W        W19129  12.985  33.648   0.273
66234W        W19130  35.448   3.675   7.711
66235W        W19131  10.468   6.710   3.234
66236W        W19132   8.206  17.544   7.498
66237W        W19133  32.204  23.894   3.572
66238W        W19134  27.580  21.328   9.931
66239W        W19135  27.831   4.177   8.275
66240W        W19136  30.555  14.395   0.708
66241W        W19137   6.778  13.834   8.502
66242W        W19138  17.247  18.559   9.597
66243W        W19139  21.496  33.564  10.041
66244W        W19140  16.182  25.357   0.230
66245W        W19141  20.025  10.531   1.509
66246W        W19142   2.758  33.393   7.454
66247W        W19143  11.238  19.755   7.623
66248W        W19144  30.674  13.598   2.612
66249W        W19145   8.211  33.077   1.301
66250W        W19146  34.661  16.453   8.888
66251W        W19147  20.399  29.891   0.527
66252W        W19148  26.448   7.612   2.704
66253W        W19149   5.089  17.252   7.709
66254W        W19150  21.099  22.879   1.410
66255W        W19151  29.381  19.559   1.929
66256W        W19152  25.633  20.204   2.055
66257W        W19153   8.586  21.782   8.649
66258W        W19154  32.450   6.994   1.219
66259W        W19155  21.744  11.004   9.918
66260W        W19156  26.688   0.291   7.743
66261W        W19157  32.774  35.183  10.081
66262W        W19158   8.377  15.088   1.036
66263W        W19159  12.224   3.511   9.931
66264W        W19160   3.710   9.403   8.335
66265W        W19161   5.747  11.735   0.970
66266W        W19162  24.124  30.859   8.496
66267W        W19163  17.631  12.924   9.892
66268W        W19164   7.342   5.890   1.885
66269W        W19165   8.871  12.014   9.408
66270W        W19166  27.043  12.826   3.172
66271W        W19167  10.164  19.988   1.499
66272W        W19168   1.739  18.788   3.072
66273W        W19169  30.084  33.638   0.018
66274W        W19170  20.935  29.937   9.192
66275W        W19171  21.752   7.847   2.637
66276W        W19172  10.730  24.999   0.185
66277W        W19173  35.999  14.958   0.727
66278W        W19174   2.869  15.440   3.183
66279W        W19175  21.065  31.578   2.307
66280W        W19176   6.071  24.167   8.508
66281W        W19177  18.426  18.826   3.248
66282W        W19178  15.981  15.126   7.641
66283W        W19179  31.736  28.003   7.801
66284W        W19180  11.250  20.268   7.783
66285W        W19181   4.293  15.441   2.069
66286W        W19182  11.063   5.235   7.455
66287W        W19183  16.713  18.548   2.361
66288W        W19184  19.223   3.497   4.186
66289W        W19185   0.724   3.177   0.395
66290W        W19186  18.575  29.980   1.080
66291W        W19187  23.154  22.866   9.152
66292W        W19188   7.614  35.429   1.678
66293W        W19189  15.955  15.041   2.164
66294W        W19190  27.166  11.157   7.565
66295W        W19191  28.404  22.211   1.251
66296W        W19192  22.023  35.853  10.082
66297W        W19193  14.346  10.789   0.145
66298W        W19194  31.914  10.873   8.850
66299W        W19195   9.053   6.605   8.404
66300W        W19196  21.012   3.938   7.343
66301W        W19197  13.196   8.503   0.203
66302W        W19198  25.088  25.741   7.727
66303W        W19199   2.049  18.133   3.581
66304W        W19200  35.567  21.406   2.026
66305W        W19201   7.695  26.595   7.154
66306W        W19202  11.446  18.708  10.246
66307W        W19203   0.191  12.201   1.220
66308W        W19204  19.144  23.690   4.191
66309W        W19205  29.343   4.637   3.514
66310W        W19206  13.542  23.010   2.468
66311W        W19207  33.418  12.697   1.881
66312W        W19208   3.470  19.009   0.310
66313W        W19209  28.052  20.977   1.218
66314W        W19210  28.940  23.961   1.060
66315W        W19211   2.709  30.281   0.566
66316W        W19212  16.324  11.859   0.243
66317W        W19213  31.548  26.621   9.602
66318W        W19214  10.325  33.567   7.959
66319W        W19215   4.012   8.471   0.459
66320W        W19216  30.351  33.791   2.415
66321W        W19217  21.050  20.973  10.025
66322W        W19218  10.993   9.441   9.884
66323W        W19219   0.996  11.328   8.184
66324W        W19220   0.645  16.170   2.374
66325W        W19221  24.854  12.197   2.801
66326W        W19222  31.291   5.381   1.448
66327W        W19223   2.558  11.124   4.098
66328W        W19224  17.399  30.539   9.702
66329W        W19225  25.310  11.050   9.598
66330W        W19226  18.880  18.939   2.401
66331W        W19227  19.484   3.043   9.296
66332W        W19228   9.571  26.925   0.199
66333W        W19229   9.513  35.482   2.415
66334W        W19230  19.365   8.283   2.986
66335W        W19231  34.333  10.957   7.898
66336W        W19232  24.609  13.973   7.795
66337W        W19233  27.487  35.413   0.082
66338W        W19234   7.155  22.857   7.768
66339W        W19235   1.086  28.464   1.607
66340W        W19236  17.774  15.478   9.052
66341W        W19237   2.122  29.777   2.594
66342W        W19238  20.932   2.606   0.080
66343W        W19239   0.238  25.321   8.334
66344W        W19240   9.376  31.588   0.827
66345W        W19241  31.457  12.923   0.772
66346W        W19242   8.351   4.495   8.437
66347W        W19243  30.454  28.072   3.130
66348W        W19244  24.624  21.840   8.520
66349W        W19245  30.039  29.660   9.025
66350W        W19246   2.482  34.433   0.270
66351W        W19247   1.435  28.794   7.954
66352W        W19248  30.117  32.040   2.101
66353W        W19249  31.814  11.557   9.569
66354W        W19250  29.265  18.556   1.615
66355W        W19251  25.685   6.699   9.035
66356W        W19252  32.825  12.712   0.028
66357W        W19253  34.800  27.476   7.598
66358W        W19254   3.288   3.371   2.518
66359W        W19255  14.279  16.107   7.922
66360W        W19256  35.491  28.927   9.155
66361W        W19257  26.048  20.573   2.268
66362W        W19258  21.554  19.597   1.917
66363W        W19259   3.031  22.054   7.885
66364W        W19260   2.648   6.085   9.588
66365W        W19261   3.923  26.346   9.091
66366W        W19262   4.404  25.132   2.286
66367W        W19263  13.765  13.833   7.169
66368W        W19264  35.632  20.793   4.022
66369W        W19265  31.466  18.371   0.952
66370W        W19266  25.773  24.326  10.104
66371W        W19267   8.239  31.067  10.134
66372W        W19268  14.078  22.049   1.609
66373W        W19269  13.153   8.420   8.836
66374W        W19270  26.691   3.717   1.295
66375W        W19271  12.686  31.071   2.016
66376W        W19272  13.765  22.263   8.354
66377W        W19273  34.019   0.468   9.069
66378W        W19274   3.092   9.867   1.514
66379W        W19275  19.166   0.378   9.050
66380W        W19276   4.206   6.643   2.981
66381W        W19277  18.797   2.961   2.346
66382W        W19278  29.696   4.415   2.469
66383W        W19279   7.269   3.759   1.774
66384W        W19280  10.350   9.351   3.087
66385W        W19281  32.591  16.620   9.064
66386W        W19282  31.499  11.773   0.980
66387W        W19283   2.123  12.668  10.204
66388W        W19284   6.811   1.353   7.988
66389W        W19285  15.590  34.336   2.210
66390W        W19286   4.491   0.413   3.262
66391W        W19287  20.361   4.743   0.447
66392W        W19288  19.648  23.960   2.766
66393W        W19289  12.883  17.645   8.516
66394W        W19290  22.833  17.268   4.423
66395W        W19291   0.451  31.978   2.733
66396W        W19292  28.171   1.328   7.827
66397W        W19293   7.816  30.096   1.556
66398W        W19294  12.063  33.700   3.869
66399W        W19295  14.830   4.994   8.693
66400W        W19296  33.910  24.005   8.293
66401W        W19297  21.679  13.151   9.330
66402W        W19298  32.524  14.539   2.871
66403W        W19299  10.522  19.046   0.883
66404W        W19300  15.647  22.238   9.341
66405W        W19301  28.979  28.323   8.363
66406W        W19302   6.863   5.616   8.400
66407W        W19303   0.750  27.996   7.962
66408W        W19304  21.302  20.446   1.705
66409W        W19305   0.002  23.567   1.083
66410W        W19306   7.069  12.753   1.670
66411W        W19307   7.979   0.089  10.333
66412W        W19308  34.051  12.075   9.604
66413W        W19309  25.101  10.448   2.610
66414W        W19310  30.308  15.085   2.697
66415W        W19311  17.796  20.041   1.528
66416W        W19312   2.805   7.422   1.341
66417W        W19313  30.820  19.703   9.736
66418W        W19314  14.935   8.095  10.116
66419W        W19315   3.234  25.041   2.532
66420W        W19316   6.460   7.375   8.034
66421W        W19317  30.724   7.789   1.790
66422W        W19318  19.016  27.450   8.713
66423W        W19319  19.298  15.415   7.735
66424W        W19320  21.383   1.518   1.390
66425W        W19321  19.897  15.882  10.094
66426W        W19322  28.209  21.378   1.732
66427W        W19323   8.479  13.067   2.842
66428W        W19324  20.816   0.219   0.937
66429W        W19325  33.067  33.998   2.165
66430W        W19326  21.598  10.249   0.671
66431W        W19327  12.980   4.931   9.554
66432W        W19328  25.487  35.775   9.647
66433W        W19329  32.979  27.651   9.871
66434W        W19330   0.536  28.964   7.315
66435W        W19331  18.522  15.148   0.338
66436W        W19332  32.528  28.782   0.461
66437W        W19333   6.628  26.396  10.106
66438W        W19334   1.061  26.942   9.788
66439W        W19335  28.270  12.357   2.783
66440W        W19336   4.293  33.569   2.416
66441W        W19337  20.393  11.660   9.160
66442W        W19338  14.311   8.580   0.130
66443W        W19339  10.223  12.263   7.454
66444W        W19340  10.631  16.018  10.309
66445W        W19341   2.671  26.101   1.175
66446W        W19342  19.189  16.478   3.441
66447W        W19343   4.054  23.082   7.321
66448W        W19344  15.440  13.057   1.892
66449W        W19345  14.137   0.919   7.579
66450W        W19346  21.941   1.588   1.911
66451W        W19347   5.346  14.066   0.925
66452W        W19348  10.326   9.398   7.897
66453W        W19349  35.067  15.252   2.814
66454W        W19350  20.926   3.306   1.602
66455W        W19351  29.590  27.322   2.154
66456W        W19352   7.774  21.899   0.080
66457W        W19353  13.081   9.511   0.257
66458W        W19354  15.621   1.467   1.870
66459W        W19355   4.562   8.368   2.488
66460W        W19356  22.179  10.628   0.718
66461W        W19357  29.383  30.629   2.501
66462W        W19358  15.961   0.076   9.461
66463W        W19359  30.297  19.832   2.410
66464W        W19360  16.506   4.618   8.189
66465W        W19361  32.581  28.885   3.931
66466W        W19362  10.879  10.777   0.833
66467W        W19363   3.901  28.446   0.139
66468W        W19364  14.759  23.011   8.886
66469W        W19365  18.547  34.418   1.852
66470W        W19366   7.906   8.246  10.014
66471W        W19367  15.318  21.911   2.717
66472W        W19368  24.281  11.646   9.124
66473W        W19369  28.851   5.085   8.490
66474W        W19370  13.702  28.055   2.850
66475W        W19371   0.286   9.585   0.142
66476W        W19372  19.198   5.187   0.973
66477W        W19373   6.749  18.299   0.729
66478W        W19374  21.410  19.794   2.403
66479W        W19375  11.300  26.131   7.926
66480W        W19376  15.165  23.107   7.993
66481W        W19377  19.390  27.171   9.022
66482W        W19378  30.992   5.637   9.885
66483W        W19379  21.594  26.617   9.447
66484W        W19380   2.608   9.962   1.438
66485W        W19381  21.208  21.441   8.495
66486W        W19382  32.233  17.030   0.503
66487W        W19383   9.539  28.182   2.187
66488W        W19384  22.947  20.740   3.143
66489W        W19385  20.593  30.214   0.862
66490W        W19386  10.175  20.861   8.772
66491W        W19387  14.089   2.449   9.207
66492W        W19388  25.740  13.337   8.533
66493W        W19389   7.710  35.099  10.234
66494W        W19390  33.990  10.556   7.859
66495W        W19391  21.105  15.506   1.112
66496W        W19392  19.930  34.397   2.393
66497W        W19393  14.220  28.813   0.993
66498W        W19394  35.654  27.548   2.576
66499W        W19395  23.330   8.798   1.064
66500W        W19396  32.190  34.274   0.492
66501W        W19397   9.560  23.893   0.581
66502W        W19398   3.985  27.036   0.926
66503W        W19399   8.237  10.795   7.578
66504W        W19400  22.362   8.355   1.651
66505W        W19401  28.677  33.085   0.627
66506W        W19402   0.829   0.699   2.840
66507W        W19403   5.727  10.545   9.465
66508W        W19404  13.744   0.929   9.990
66509W        W19405  22.333   9.714   3.495
66510W        W19406  10.362   6.781   1.598
66511W        W19407   7.107  10.203   1.715
66512W        W19408  15.054  31.829   0.897
66513W        W19409   8.390  26.019   2.810
66514W        W19410   6.366  17.618   8.735
66515W        W19411  24.957   3.995   8.488
66516W        W19412  27.763  30.574   0.877
66517W        W19413   0.605  11.133   9.765
66518W        W19414  19.153   8.378   9.697
66519W        W19415  24.129  14.086   1.381
66520W        W19416  22.551  29.358   1.130
66521W        W19417  35.576   4.244   1.038
66522W        W19418  18.537  27.739   3.317
66523W        W19419  34.643  18.168   1.757
66524W        W19420  10.879   0.715   1.356
66525W        W19421   7.541  22.590   8.569
66526W        W19422  17.986   6.066   0.810
66527W        W19423   5.886   6.355   2.425
66528W        W19424   5.743   2.807   8.573
66529W        W19425  28.522  19.759   7.315
66530W        W19426   0.859   8.579   8.292
66531W        W19427  16.510  34.280   0.082
66532W        W19428  11.453  21.480   1.383
66533W        W19429  11.672  24.652   2.236
66534W        W19430  32.688  26.593   7.970
66535W        W19431  19.692  32.183   1.487
66536W        W19432   6.571  23.947   2.619
66537W        W19433  26.468  19.416   2.566
66538W        W19434   8.893  25.935   0.837
66539W        W19435  29.167   5.377   9.309
66540W        W19436  26.137  17.316   2.185
66541W        W19437   7.754   5.231   2.643
66542W        W19438  29.806  23.220   7.696
66543W        W19439  11.070   2.727   7.618
66544W        W19440  16.069  24.245   0.306
66545W        W19441  11.004   8.412   0.134
66546W        W19442   6.465  11.181   2.981
66547W        W19443  29.023  24.894   1.956
66548W        W19444  23.396  33.571   8.800
66549W        W19445  13.454  20.593   0.119
66550W        W19446   1.889  16.116   9.796
66551W        W19447  14.459   0.299   6.989
66552W        W19448  21.988  30.140   0.622
66553W        W19449  11.816   8.852  10.325
66554W        W19450   9.821   9.856   9.641
66555W        W19451  15.746  22.813   9.347
66556W        W19452  27.746  17.209   0.663
66557W        W19453  26.523   6.920   7.719
66558W        W19454  19.763  28.543   9.061
66559W        W19455  23.590   0.897   9.061
66560W        W19456   4.465  21.865  10.081
66561W        W19457   7.477   2.928   8.202
66562W        W19458   7.867   7.468   0.360
66563W        W19459  16.494  16.392   9.404
66564W        W19460   2.674  32.422   9.392
66565W        W19461  18.692  29.605   2.575
66566W        W19462  14.849  22.421   0.559
66567W        W19463  34.637  22.314   9.993
66568W        W19464   1.174  10.380   2.984
66569W        W19465  27.771  18.248   9.407
66570W        W19466  27.035  21.416   0.841
66571W        W19467  13.297  17.092   1.354
66572W        W19468   1.178   0.185   8.805
66573W        W19469  18.358   5.476   3.617
66574W        W19470  21.709  12.146   9.341
66575W        W19471  17.225  12.597  10.248
66576W        W19472  33.780  19.695   1.133
66577W        W19473  24.220  25.292   2.742
66578W        W19474   4.950  21.721   8.977
66579W        W19475  27.675  18.253   0.677
66580W        W19476   4.655  22.737   9.706
66581W        W19477  29.183   4.064   8.429
66582W        W19478  12.204  22.634   0.597
66583W        W19479   2.506  14.365  10.246
66584W        W19480  23.401  14.731   2.711
66585W        W19481  24.317  11.415   2.628
66586W        W19482  35.863   5.253   2.119
66587W        W19483   5.168  27.647   1.394
66588W        W19484  16.762  10.765   2.021
66589W        W19485  27.450   4.694  10.295
66590W        W19486  25.698   4.339   3.094
66591W        W19487  11.514  33.979   2.006
66592W        W19488  13.480  19.624   7.952
66593W        W19489   6.405  32.659   1.925
66594W        W19490  31.434  25.431   7.909
66595W        W19491  10.167   8.873   3.322
66596W        W19492   3.547  24.519   8.974
66597W        W19493  15.617  28.641   0.288
66598W        W19494   1.517  35.907   7.642
66599W        W19495  24.150  31.236  10.093
66600W        W19496  17.705  13.920   2.234
66601W        W19497  21.307  34.005   9.172
66602W        W19498  31.244   4.151   1.753
66603W        W19499  16.038  20.375  10.236
66604W        W19500  10.994   8.083   9.762
66605W        W19501   1.952  22.655   3.480
66606W        W19502  18.798   2.537   8.547
66607W        W19503   0.616   8.547   9.406
66608W        W19504  20.505   1.717   9.518
66609W        W19505  34.787   0.865  10.160
66610W        W19506  21.705  28.406   8.289
66611W        W19507  26.815  17.606   9.757
66612W        W19508  19.163   3.476   1.936
66613W        W19509  19.456  35.883   0.824
66614W        W19510  30.740  31.204   2.684
66615W        W19511  26.300  34.684   1.137
66616W        W19512   0.965  16.441   1.395
66617W        W19513  26.905  29.131   2.388
66618W        W19514  27.895   6.251   2.354
66619W        W19515   0.969  35.612   0.675
66620W        W19516  25.080  19.789   0.450
66621W        W19517  19.961   9.386   8.214
66622W        W19518  21.818   5.473   7.908
66623W        W19519  23.185  25.516   0.549
66624W        W19520  27.283  12.117   9.293
66625W        W19521  30.592   3.264   8.002
66626W        W19522  21.118   6.100   1.848
66627W        W19523  20.456  15.782   8.397
66628W        W19524  18.382  33.314   0.553
66629W        W19525  12.533  29.635   1.785
66630W        W19526  10.913  18.692   1.371
66631W        W19527   8.350  35.873   8.650
66632W        W19528  28.521  27.808   8.394
66633W        W19529  25.733  24.818   8.252
66634W        W19530  29.986   5.373   0.511
66635W        W19531  17.130   0.078   1.460
66636W        W19532  31.368  17.812   9.493
66637W        W19533  21.512  13.713   7.931
66638W        W19534  23.994  20.858   1.792
66639W        W19535  33.594   1.400   1.315
66640W        W19536  25.812   9.045   8.497
66641W        W19537  30.086  24.869   9.871
66642W        W19538  27.032  27.353   0.127
66643W        W19539  18.850   1.206   0.659
66644W        W19540  18.842  23.630   2.370
66645W        W19541  27.620  14.457   9.834
66646W        W19542  34.765  34.417   2.247
66647W        W19543  22.860  32.886   1.316
66648W        W19544  11.872  27.642   8.262
66649W        W19545  13.935  20.661  10.299
66650W        W19546  19.808  29.023   7.876
66651W        W19547  14.533   3.931   7.929
66652W        W19548  12.208  16.645   8.645
66653W        W19549   5.381  10.613   9.921
66654W        W19550   4.991   2.172   1.788
66655W        W19551   5.410  11.908   7.314
66656W        W19552  34.944  12.155   2.818
66657W        W19553  21.012  26.481   9.755
66658W        W19554  13.729   4.752   2.532
66659W        W19555  25.156   9.715   2.254
66660W        W19556  26.942   7.682   9.407
66661W        W19557  21.027   3.118  10.115
66662W        W19558   8.675  17.019   1.964
66663W        W19559  26.155  18.192   7.950
66664W        W19560  10.541  14.039   8.471
66665W        W19561  30.362  15.384   1.736
66666W        W19562   7.384  28.967   2.204
66667W        W19563  32.470  29.543   3.799
66668W        W19564  33.242  16.594  10.033
66669W        W19565  20.053  18.329   1.744
66670W        W19566  18.240   7.963   9.098
66671W        W19567  18.805  17.846   8.711
66672W        W19568  28.127  21.428   7.738
66673W        W19569  28.302   4.067   3.757
66674W        W19570  15.739  34.876   0.840
66675W        W19571  11.776  12.588   9.626
66676W        W19572  13.568   6.546   2.357
66677W        W19573  28.770  12.574   0.062
66678W        W19574   5.771  11.105   0.273
66679W        W19575  18.605  21.641   1.619
66680W        W19576  29.297  32.506   2.189
66681W        W19577   7.114  25.028   7.726
66682W        W19578  20.472   3.002   7.600
66683W        W19579   9.441  30.563   9.796
66684W        W19580  20.990   0.625   7.504
66685W        W19581   7.325  19.123   0.240
66686W        W19582   4.450  16.769   8.315
66687W        W19583  12.508  32.322   8.456
66688W        W19584  16.964   7.747   7.432
66689W        W19585   6.395  20.597   0.760
66690W        W19586   4.208  17.950   9.634
66691W        W19587   0.685   1.062   8.538
66692W        W19588   1.234  28.226   0.519
66693W        W19589   7.148  35.238   9.038
66694W        W19590  10.754  16.605   8.472
66695W        W19591  11.576  30.265   8.861
66696W        W19592   3.986  23.199   0.174
66697W        W19593   6.997  34.120   1.819
66698W        W19594  12.563   1.273   6.817
66699W        W19595  24.271  28.920   2.358
66700W        W19596  35.757  28.327   2.825
66701W        W19597  19.784  25.609   3.247
66702W        W19598  22.813  15.051  10.267
66703W        W19599  11.360  29.975   2.128
66704W        W19600  34.590   7.806   2.940
66705W        W19601  28.539  20.796   1.378
66706W        W19602   1.900   4.569   0.673
66707W        W19603   8.046  14.807   2.822
66708W        W19604   5.276   5.800   8.986
66709W        W19605  12.486  34.664   1.366
66710W        W19606  25.439  31.441   3.089
66711W        W19607  20.957  35.928   0.580
66712W        W19608  15.057   4.979   9.602
66713W        W19609   1.722  31.109   3.802
66714W        W19610  28.901   0.124   8.362
66715W        W19611  34.480  29.911   0.870
66716W        W19612  12.958  11.237   1.375
66717W        W19613  23.042  31.187   9.252
66718W        W19614  33.064   0.330   2.632
66719W        W19615  24.935   5.782   1.134
66720W        W19616   3.945  15.231   1.743
66721W        W19617   1.779  25.499   0.824
66722W        W19618   0.515   6.029   3.261
66723W        W19619  20.678  21.338   0.265
66724W        W19620  32.613   4.306   3.321
66725W        W19621  15.792  18.703   1.072
66726W        W19622  23.451  31.745   7.309
66727W        W19623  24.031  26.393   9.225
66728W        W19624  10.307  15.400   1.143
66729W        W19625  29.324  24.359   9.675
66730W        W19626   8.635  18.352   1.035
66731W        W19627   6.447  20.805   2.374
66732W        W19628   4.430  33.537   1.007
66733W        W19629  15.008  18.362   1.529
66734W        W19630  17.192   2.276   8.491
66735W        W19631   5.050  29.139   0.963
66736W        W19632  16.352  16.727   1.651
66737W        W19633   5.399  17.083   8.074
66738W        W19634  31.145  12.566   3.597
66739W        W19635   0.490  34.416  10.329
66740W        W19636   8.847  34.906   7.226
66741W        W19637  21.321  35.569   8.535
66742W        W19638  13.165  17.243   2.482
66743W        W19639  26.095   1.269   0.636
66744W        W19640  31.714  32.813   0.835
66745W        W19641  29.882  25.253   1.027
66746W        W19642  32.315  13.195   3.107
66747W        W19643   7.418   2.140   7.897
66748W        W19644  28.265   5.903   1.271
66749W        W19645  35.577  11.153   2.288
66750W        W19646  30.302  25.842   7.668
66751W        W19647  19.668   4.117   9.777
66752W        W19648  13.083  27.855   9.145
66753W        W19649  25.864   1.579   1.064
66754W        W19650  33.379   1.830   1.925
66755W        W19651   4.985  23.171   0.122
66756W        W19652  31.785  24.209   8.649
66757W        W19653  33.744   9.643   1.492
66758W        W19654  22.360  15.384   8.318
66759W        W19655  28.952   4.700   3.212
66760W        W19656  33.404   7.789   8.988
66761W        W19657  10.457   7.017   8.011
66762W        W19658  34.827  32.462  10.253
66763W        W19659  21.226   1.322   8.632
66764W        W19660   2.244  25.300   9.069
66765W        W19661   7.044  25.909   9.524
66766W        W19662   9.913  27.261   9.291
66767W        W19663   8.986  20.632  10.059
66768W        W19664   9.555  22.223  10.218
66769W        W19665  15.653  19.076   9.435
66770W        W19666  18.932  28.971   8.876
66771W        W19667   8.373  35.605   9.918
66772W        W19668   8.919  34.415  10.150
66773W        W19669  13.178  31.707  10.008
66774W        W19670   1.739  19.906   0.175
66775W        W19671  20.305   4.405   1.487
66776W        W19672  11.653  19.281   2.309
66777W        W19673  24.154  35.846   0.965
66778W        W19674   7.154  28.567   7.735
66779W        W19675  15.410  15.540   8.383
66780W        W19676  29.756  13.441   9.608
66781W        W19677  35.298  11.904   0.514
66782W        W19678   5.699  29.542   2.522
66783W        W19679  18.325  28.451   9.690
66784W        W19680  10.786  11.404   0.896
66785W        W19681  13.026  34.854   7.624
66786W        W19682  31.206  13.667   8.573
66787W        W19683  15.157   8.620   1.629
66788W        W19684  27.432   0.113   8.092
66789W        W19685  19.518  28.049   2.314
66790W        W19686  22.385  34.947   2.726
66791W        W19687  14.228  27.014   1.225
66792W        W19688  22.944  25.998   2.677
66793W        W19689  19.893   8.324   2.898
66794W        W19690  14.098  17.439   9.781
66795W        W19691   9.521  27.660   3.322
66796W        W19692  17.727  16.902  10.200
66797W        W19693  22.621   8.440   3.076
66798W        W19694  33.164  24.515   3.994
66799W        W19695  31.908   2.907   8.153
66800W        W19696  33.327   2.657   8.480
66801W        W19697  20.647  21.021   7.899
66802W        W19698   8.196  25.355   8.170
66803W        W19699   4.162  20.924   0.314
66804W        W19700  10.695  19.951   1.746
66805W        W19701  23.046  19.317   9.511
66806W        W19702  13.591   3.474   2.119
66807W        W19703  27.593  18.715   8.193
66808W        W19704  11.459   0.494   1.969
66809W        W19705  23.433  30.032   2.332
66810W        W19706  10.317  21.711   8.549
66811W        W19707   1.485   6.592   8.907
66812W        W19708   4.093  21.949   8.244
66813W        W19709   4.765  21.185   0.220
66814W        W19710  16.641  35.654   9.975
66815W        W19711  28.515  33.296   7.401
66816W        W19712  12.378   9.045   1.370
66817W        W19713  23.971  14.030   8.365
66818W        W19714  20.085  19.872  10.192
66819W        W19715  16.901   9.063   0.723
66820W        W19716  33.699  25.752   2.829
66821W        W19717  20.792   3.881   0.829
66822W        W19718  21.817  26.341   0.062
66823W        W19719   6.785   9.101   0.847
66824W        W19720  31.286  12.603   8.980
66825W        W19721  31.769  14.429   2.544
66826W        W19722   7.327  10.460   7.913
66827W        W19723  35.414  27.199   0.508
66828W        W19724   1.813   4.659   2.807
66829W        W19725  25.117   6.945  10.009
66830W        W19726   6.387  18.027   0.375
66831W        W19727  14.535  26.972   9.552
66832W        W19728  11.149   6.002   7.717
66833W        W19729  18.400  27.618   0.987
66834W        W19730  12.262  28.005   1.090
66835W        W19731  20.962   7.522   1.815
66836W        W19732   8.709  21.240   8.181
66837W        W19733  10.064  16.079   8.010
66838W        W19734  21.879  29.069   9.804
66839W        W19735   1.000  31.163   1.774
66840W        W19736   3.516  20.625   8.092
66841W        W19737   7.684  32.625   0.808
66842W        W19738  25.382  34.491   9.847
66843W        W19739   3.351   2.982   9.374
66844W        W19740  34.510  16.100   1.518
66845W        W19741  13.627   3.069   8.713
66846W        W19742   8.696   1.562   9.279
66847W        W19743  23.184   5.204   8.956
66848W        W19744  28.273  35.006   9.642
66849W        W19745  12.729   3.599   1.301
66850W        W19746  19.688  14.163   0.435
66851W        W19747  26.173  24.157   2.190
66852W        W19748  13.435  30.709   9.577
66853W        W19749  16.471   8.501   9.085
66854W        W19750  29.947  26.244   9.086
66855W        W19751   5.230   9.815   9.342
66856W        W19752  18.340  16.696   9.152
66857W        W19753  22.729   0.169   0.731
66858W        W19754  20.041   6.801  10.313
66859W        W19755   6.510  22.361   7.747
66860W        W19756  25.862  29.258   8.825
66861W        W19757  28.802  30.070   8.332
66862W        W19758  10.152  22.025   0.086
66863W        W19759  23.255   7.868   0.542
66864W        W19760  32.513  14.902   0.782
66865W        W19761  26.420  25.097   7.612
66866W        W19762   8.584  33.375   1.497
66867W        W19763  16.251  19.923   8.776
66868W        W19764   7.170   5.861   3.845
66869W        W19765  25.452   8.740   0.169
66870W        W19766  31.089  32.149  10.335
66871W        W19767  12.199   0.775   9.791
66872W        W19768   9.674   2.359   1.537
66873W        W19769   4.631  17.206   0.669
66874W        W19770  35.598  21.888   8.977
66875W        W19771  33.588   8.440   8.266
66876W        W19772  27.386   8.650   0.796
66877W        W19773  19.200  12.037   9.670
66878W        W19774   9.154  33.391   2.921
66879W        W19775   3.902  12.541   1.976
66880W        W19776   6.259  32.427   2.406
66881W        W19777  28.741   6.088   0.792
66882W        W19778  22.942  20.037   1.547
66883W        W19779  35.533  23.621   2.028
66884W        W19780  22.345   2.324  10.158
66885W        W19781  33.744  31.949   9.960
66886W        W19782  32.023  12.031   1.108
66887W        W19783  26.593  17.175   2.659
66888W        W19784  22.369   1.743   7.644
66889W        W19785  23.324  11.059   3.252
66890W        W19786   2.889  23.877   8.914
66891W        W19787   6.286  32.047   0.859
66892W        W19788  22.623  19.764   9.887
66893W        W19789   1.890   7.806   2.726
66894W        W19790  18.380  32.303   2.277
66895W        W19791  10.589   5.683  10.141
66896W        W19792  20.081  24.817   7.266
66897W        W19793  19.352  14.524   9.456
66898W        W19794  11.469  12.230   8.936
66899W        W19795   6.455  15.831   0.049
66900W        W19796  17.075   1.712   2.079
66901W        W19797  33.470  31.113   0.374
66902W        W19798  16.109  13.423  10.133
66903W        W19799  34.077  16.942   8.470
66904W        W19800  19.644  27.604   9.325
66905W        W19801   8.201   9.001   2.718
66906W        W19802  15.658  22.070   2.346
66907W        W19803  13.075  29.359   0.646
66908W        W19804   7.853  22.848   0.664
66909W        W19805  12.267  15.571   8.525
66910W        W19806   9.914  29.913   9.820
66911W        W19807  19.317  16.875   9.106
66912W        W19808  27.702  14.166   1.818
66913W        W19809  22.143  18.280   9.719
66914W        W19810  18.852   0.481   9.454
66915W        W19811  26.662  22.698   1.808
66916W        W19812  22.451   6.144   1.395
66917W        W19813  33.729  14.145   3.017
66918W        W19814  15.016   7.776   3.589
66919W        W19815  13.036  20.972   9.788
66920W        W19816   1.054  35.277   2.740
66921W        W19817   1.456  16.849   3.265
66922W        W19818  29.302   1.981   8.922
66923W        W19819   4.429  12.766   7.937
66924W        W19820  34.385  14.070   8.711
66925W        W19821   2.014  27.857   0.302
66926W        W19822  22.994  18.267   0.161
66927W        W19823  28.982  18.940   8.476
66928W        W19824  19.254   0.152   9.524
66929W        W19825  10.351   2.963   1.830
66930W        W19826   1.849  12.915   0.197
66931W        W19827  15.813  33.317   9.418
66932W        W19828  24.406   1.192   8.936
66933W        W19829  26.222  19.962   8.026
66934W        W19830  19.771  23.866   8.553
66935W        W19831  33.213   3.713   3.152
66936W        W19832  12.806  14.881   3.245
66937W        W19833  35.155  16.421   3.561
66938W        W19834  16.369  35.061   7.932
66939W        W19835  11.656  31.167   0.242
66940W        W19836  14.299  22.784   8.429
66941W        W19837  34.785  15.058  10.128
66942W        W19838   5.160  16.998  10.221
66943W        W19839  25.967  11.037   2.679
66944W        W19840  34.513  15.720   1.059
66945W        W19841  31.520  25.274   2.231
66946W        W19842  21.866  19.394   1.101
66947W        W19843   6.856  11.095   1.247
66948W        W19844   0.836  35.341   8.642
66949W        W19845   3.786  22.907   2.323
66950W        W19846   7.332  25.341   8.396
66951W        W19847   4.393  15.359   3.660
66952W        W19848  14.049  19.860   0.602
66953W        W19849   3.910   9.114   2.196
66954W        W19850  20.000  28.787   2.710
66955W        W19851   5.657  28.702   3.024
66956W        W19852  35.041  21.176   8.246
66957W        W19853   2.447   1.241   0.348
66958W        W19854  14.471  23.493   2.276
66959W        W19855  35.810  14.756   2.584
66960W        W19856  13.279  11.031   8.863
66961W        W19857  29.309   1.203  10.092
66962W        W19858  31.411  27.262   0.136
66963W        W19859  34.594  17.041   3.098
66964W        W19860  32.414   5.370   2.956
66965W        W19861  14.862  32.262   1.130
66966W        W19862  13.770  32.384   0.365
66967W        W19863  21.118  27.510   9.255
66968W        W19864  13.190  31.060   7.714
66969W        W19865  19.344   3.338   1.438
66970W        W19866  13.125  16.385   9.201
66971W        W19867  11.316   6.759   0.059
66972W        W19868  21.666   8.104   8.784
66973W        W19869  19.933  34.913   7.517
66974W        W19870  29.624   1.682   1.441
66975W        W19871  20.399   7.942   0.889
66976W        W19872  11.936  33.287   9.451
66977W        W19873  14.235  29.201   2.668
66978W        W19874  16.329  16.729   8.903
66979W        W19875   1.235  31.767   8.909
66980W        W19876  18.322  21.239   8.356
66981W        W19877  21.893  26.130   8.216
66982W        W19878  15.678  24.233   8.532
66983W        W19879   0.994  34.457  10.129
66984W        W19880  25.796  35.370   9.795
66985W        W19881   6.347  10.551   2.783
66986W        W19882  30.096  29.550   7.074
66987W        W19883  22.613  13.028   3.075
66988W        W19884  33.413  11.809   2.612
66989W        W19885  32.516   4.772   1.211
66990W        W19886  27.298  15.394  10.033
66991W        W19887   0.797  12.731   1.847
66992W        W19888  32.180  21.526   0.541
66993W        W19889  16.159  13.339   9.511
66994W        W19890  24.200  20.366   1.824
66995W        W19891   0.302   2.080   0.311
66996W        W19892  33.867   6.870   3.409
66997W        W19893  30.935  26.228   3.802
66998W        W19894  23.204  34.435   3.666
66999W        W19895  22.719   6.631   1.387
67000W        W19896   0.290  14.385   9.427
67001W        W19897   1.672  28.626   0.895
67002W        W19898  24.403  23.286   3.384
67003W        W19899   3.139  17.606   1.043
67004W        W19900  11.282  22.376   8.404
67005W        W19901   3.138  14.388   8.192
67006W        W19902  17.818  35.910   9.585
67007W        W19903  29.438  13.070   2.498
67008W        W19904   3.231   3.033   0.739
67009W        W19905   7.074  34.908   0.878
67010W        W19906  32.025  26.800   1.375
67011W        W19907  10.884   0.052   9.376
67012W        W19908  12.308  21.601   2.774
67013W        W19909  29.010  16.350   9.196
67014W        W19910  11.191   6.761   9.898
67015W        W19911  13.854  28.887   8.151
67016W        W19912  25.668  27.710   8.490
67017W        W19913  17.278  10.138   2.618
67018W        W19914  20.249  10.021   9.294
67019W        W19915  28.939  21.852   0.539
67020W        W19916  32.792  13.088   2.121
67021W        W19917  14.504  26.418   9.599
67022W        W19918  27.830  13.788   8.586
67023W        W19919   3.900  12.294   3.569
67024W        W19920  12.456   5.781   8.559
67025W        W19921  19.690  33.642   3.120
67026W        W19922  16.240   7.353   8.034
67027W        W19923   5.408   9.424   3.112
67028W        W19924   6.786   0.186   9.615
67029W        W19925  25.518  22.506   9.281
67030W        W19926  22.477   5.882   0.291
67031W        W19927  20.103  21.374   9.015
67032W        W19928  34.382   7.766   2.379
67033W        W19929  19.665  35.931   1.299
67034W        W19930   5.294  24.762   3.558
67035W        W19931  28.063   3.926   8.632
67036W        W19932  26.620  16.867   3.228
67037W        W19933  17.549  24.197   0.276
67038W        W19934   7.436  22.220   2.071
67039W        W19935   1.141  32.753   9.543
67040W        W19936  15.873  31.655   7.881
67041W        W19937   0.406  32.325   0.218
67042W        W19938  34.265  14.158   9.170
67043W        W19939  16.074  14.919   9.383
67044W        W19940  30.439  19.702   7.970
67045W        W19941  25.266  27.279   7.914
67046W        W19942  23.605   9.831   1.267
67047W        W19943  30.603  34.585   8.785
67048W        W19944   5.338  17.670  10.199
67049W        W19945  17.746   6.600   0.565
67050W        W19946   6.449  12.646   9.396
67051W        W19947   4.718   3.629   1.536
67052W        W19948  28.767  28.360   1.227
67053W        W19949  15.253  30.711   2.544
67054W        W19950  14.432  28.648   8.279
67055W        W19951  27.152   0.595   0.990
67056W        W19952  24.510  15.900   8.242
67057W        W19953   2.423  19.995  10.043
67058W        W19954  20.239  14.311   8.699
67059W        W19955   3.741  25.948   9.858
67060W        W19956   6.642   0.200   8.324
67061W        W19957  22.521   3.971   8.212
67062W        W19958  25.071  12.674   3.400
67063W        W19959  14.156  33.436   1.869
67064W        W19960  13.163  11.488   0.223
67065W        W19961  11.529  17.900   0.458
67066W        W19962   8.878  16.672   7.855
67067W        W19963   2.171  17.936   9.319
67068W        W19964   0.054  22.200   0.785
67069W        W19965  21.003  20.653   3.066
67070W        W19966  20.742   4.417   8.371
67071W        W19967  30.736  31.276   1.651
67072W        W19968  31.794  23.562   2.036
67073W        W19969  23.249   7.978   8.420
67074W        W19970   2.320   8.631   0.013
67075W        W19971   8.849  11.898   1.459
67076W        W19972  20.259  27.180   8.645
67077W        W19973  26.011  11.551   8.157
67078W        W19974  33.992   5.763   9.760
67079W        W19975   2.747  29.831   0.765
67080W        W19976  34.702   0.575   7.351
67081W        W19977  10.072  27.358   1.527
67082W        W19978   3.578  32.953   7.921
67083W        W19979   2.043  34.828   1.371
67084W        W19980  12.945  17.748   9.581
67085W        W19981  29.530   8.359   2.220
67086W        W19982  17.932  32.247   2.768
67087W        W19983  22.791  23.719   9.100
67088W        W19984   0.465   7.638   1.528
67089W        W19985   1.947  27.610   7.106
67090W        W19986   1.843  24.602   8.277
67091W        W19987  16.991  22.600   3.630
67092W        W19988  24.483  33.137   3.029
67093W        W19989   8.213  15.109   9.271
67094W        W19990  17.657  31.628   1.200
67095W        W19991  11.494  25.070   1.028
67096W        W19992  20.839   0.505   1.903
67097W        W19993   4.198  28.011   0.352
67098W        W19994  11.239  35.853   9.802
67099W        W19995  18.538  18.138   1.372
67100W        W19996  23.639   7.715   8.592
67101W        W19997  27.279   9.729   7.798
67102W        W19998  14.385  20.509   1.786
67103W        W19999  24.983  19.465   8.655
67104W        W20000  13.253   7.556   7.806
67105W        W20001  30.316  16.672   3.074
67106W        W20002  11.131  18.911   2.849
67107W        W20003  32.325   2.773   1.423
67108W        W20004  12.901  23.736   7.501
67109W        W20005  20.027  15.982   1.546
67110W        W20006  30.832  27.146   3.087
67111W        W20007   3.323   0.234   9.820
67112W        W20008  33.596  23.763   9.098
67113W        W20009   5.970  32.004   0.265
67114W        W20010  11.243  27.114   9.812
67115W        W20011   0.660  34.577   1.614
67116W        W20012   6.052  22.726   8.984
67117W        W20013  11.109  32.362   8.006
67118W        W20014   6.748  12.797   0.284
67119W        W20015  13.422  23.067   1.361
67120W        W20016  24.968  20.937   9.409
67121W        W20017  34.332   2.918   0.470
67122W        W20018   1.424  27.897   2.501
67123W        W20019  34.833  26.146   2.924
67124W        W20020   4.694  17.632   0.500
67125W        W20021  23.085  30.969   1.022
67126W        W20022   7.451  34.856   3.093
67127W        W20023   4.128  32.469   9.522
67128W        W20024   1.973   9.213   9.741
67129W        W20025   0.125  35.040   7.781
67130W        W20026  11.611  16.100   1.259
67131W        W20027  13.520   9.295   0.195
67132W        W20028  33.328  31.447   3.726
67133W        W20029  13.518  33.814   2.592
67134W        W20030  35.535  19.875  10.177
67135W        W20031  20.972   2.885   0.867
67136W        W20032   6.173   8.990   7.593
67137W        W20033   1.528  25.440   9.714
67138W        W20034  35.165  22.006   0.264
67139W        W20035  28.527  29.291   9.471
67140W        W20036   0.756  10.196   9.959
67141W        W20037  22.905  11.420   7.951
67142W        W20038  18.001   6.361   8.240
67143W        W20039   9.815  11.717   7.742
67144W        W20040  22.073  35.099   7.986
67145W        W20041   2.231  25.315   2.766
67146W        W20042  31.623  25.187   3.349
67147W        W20043  14.832   8.575   3.231
67148W        W20044  34.901  11.606   9.851
67149W        W20045  22.807   4.496   1.767
67150W        W20046  34.095  12.557   8.785
67151W        W20047  26.472   0.721   1.536
67152W        W20048  21.181   2.004   1.476
67153W        W20049  25.708  28.749  10.073
67154W        W20050   6.500  33.535  10.009
67155W        W20051  18.396  14.615   9.422
67156W        W20052  18.768  12.155   0.169
67157W        W20053  23.432  29.087   8.249
67158W        W20054  17.811   2.141   9.253
67159W        W20055  19.462  32.800   7.990
67160W        W20056   7.731  23.806   2.832
67161W        W20057  28.151  23.675   8.182
67162W        W20058  35.255  25.863   1.921
67163W        W20059   1.301   8.376   1.776
67164W        W20060  25.771  13.450   8.036
67165W        W20061  14.469   6.305   1.918
67166W        W20062  20.325  22.694   8.635
67167W        W20063  24.989   9.145   1.412
67168W        W20064   3.719  29.265   2.909
67169W        W20065  18.941  12.166   1.196
67170W        W20066   9.860  13.046   3.084
67171W        W20067  30.491  22.506   9.614
67172W        W20068  11.539  16.270   0.044
67173W        W20069  32.817  35.106   1.248
67174W        W20070  29.965  14.585   7.722
67175W        W20071   0.016  14.759   9.231
67176W        W20072   4.430   7.563   2.205
67177W        W20073  15.066   4.781   2.810
67178W        W20074  25.499  25.008   9.014
67179W        W20075   1.634  18.508   1.356
67180W        W20076  28.828  23.126   0.759
67181W        W20077  33.309  16.221   0.953
67182W        W20078  22.797  23.197   1.499
67183W        W20079   5.391  13.252   2.859
67184W        W20080  18.387  21.851   9.055
67185W        W20081  18.547   1.351   1.419
67186W        W20082  22.051  32.342   8.930
67187W        W20083  21.375  23.353   2.457
67188W        W20084  29.135  12.882   9.014
67189W        W20085   5.699  29.300   3.196
67190W        W20086  26.501  13.642   8.890
67191W        W20087   6.052   8.046   1.124
67192W        W20088   7.247   5.046   1.529
67193W        W20089   8.352  18.318   2.543
67194W        W20090  31.815  10.198   8.718
67195W        W20091  10.417  35.324   9.729
67196W        W20092  25.526  30.596   1.873
67197W        W20093   9.320   4.576   9.058
67198W        W20094  35.403   3.410   9.416
67199W        W20095   9.321  28.058   9.916
67200W        W20096  21.667  23.152  10.323
67201W        W20097   7.198  34.009   0.276
67202W        W20098  25.773  10.982   2.261
67203W        W20099  10.872  13.709  10.159
67204W        W20100  34.012   4.600   0.229
67205W        W20101  23.801   4.160   1.978
67206W        W20102  13.271   0.827   8.777
67207W        W20103  24.869  21.952   2.478
67208W        W20104   2.237   6.567   1.644
67209W        W20105  27.485   3.177   0.833
67210W        W20106   6.193  24.962   8.716
67211W        W20107   3.651  20.865   0.196
67212W        W20108  32.423  10.952   0.119
67213W        W20109  13.536  31.795   1.195
67214W        W20110  19.287   1.173   1.056
67215W        W20111  26.733  23.766   8.096
67216W        W20112  18.117  26.180   2.853
67217W        W20113  14.653  15.981   1.173
67218W        W20114   2.479  32.582   8.089
67219W        W20115  33.223  31.569  10.146
67220W        W20116  33.654  19.523   1.583
67221W        W20117  20.978  19.341   1.848
67222W        W20118  11.820  12.418   0.852
67223W        W20119   1.163   7.640   3.000
67224W        W20120   6.764   7.085   3.658
67225W        W20121   3.822   2.243   8.449
67226W        W20122   5.191   6.302   0.850
67227W        W20123  34.493   1.504   0.534
67228W        W20124  28.580  22.362   8.056
67229W        W20125  28.694  33.346   8.244
67230W        W20126   7.518  35.204   2.718
67231W        W20127  18.569  24.835   8.692
67232W        W20128  21.444  20.078   9.218
67233W        W20129  18.944  28.323   9.571
67234W        W20130  13.084  31.550   9.252
67235W        W20131   5.878  27.608   2.488
67236W        W20132  15.417  25.612   9.100
67237W        W20133  31.136   0.173   0.965
67238W        W20134  26.263  30.119   7.898
67239W        W20135  33.157  10.543   9.912
67240W        W20136  21.633  31.770   2.438
67241W        W20137  15.184  23.361   2.784
67242W        W20138  11.411  21.847   8.246
67243W        W20139  23.990  19.935   9.164
67244W        W20140  13.387  24.361   2.797
67245W        W20141  27.019  17.106   0.532
67246W        W20142  25.512  16.516   2.488
67247W        W20143  19.185  31.434   3.634
67248W        W20144  26.295   4.262   7.809
67249W        W20145  22.220  26.237   8.603
67250W        W20146  34.432   5.779   1.120
67251W        W20147  25.628  26.098   7.469
67252W        W20148   8.697  31.178   0.491
67253W        W20149  18.517  31.904   1.307
67254W        W20150  29.737  13.720   1.989
67255W        W20151   4.485  10.742   7.516
67256W        W20152  22.599  16.280  10.237
67257W        W20153   4.663  12.222   0.075
67258W        W20154  30.381  20.574   8.939
67259W        W20155  24.424  23.924   1.015
67260W        W20156  28.665  11.019   0.200
67261W        W20157  23.764  18.727   2.998
67262W        W20158  11.806  15.380   8.147
67263W        W20159  20.368  11.667   8.609
67264W        W20160  14.193   5.726   1.636
67265W        W20161   7.999  22.429   8.481
67266W        W20162  33.959  13.773   7.967
67267W        W20163  24.982  33.856   3.558
67268W        W20164  21.881  23.177   1.784
67269W        W20165  11.521   0.869   0.200
67270W        W20166   6.556  22.096   8.191
67271W        W20167  28.363  25.879   1.723
67272W        W20168  15.944   9.736   9.193
67273W        W20169   4.755  30.849   7.960
67274W        W20170   6.749  21.088   1.245
67275W        W20171  30.835  28.895   2.552
67276W        W20172  10.013  10.534   1.368
67277W        W20173  22.822  16.615   0.220
67278W        W20174   0.064  15.424   3.777
67279W        W20175   4.637   6.110   9.292
67280W        W20176  20.937   1.582   0.418
67281W        W20177  34.829  12.200   8.143
67282W        W20178  10.904  34.552   2.097
67283W        W20179  17.263  32.761   9.241
67284W        W20180  33.352  27.663   0.656
67285W        W20181  35.824   2.225   2.305
67286W        W20182  27.325  34.657   0.861
67287W        W20183  23.599  26.347   2.229
67288W        W20184  22.345   6.477   0.323
67289W        W20185   1.311  16.750   8.332
67290W        W20186  22.530  20.377   9.983
67291W        W20187   9.425   0.996   7.614
67292W        W20188   9.539  29.895   2.825
67293W        W20189   4.668  15.553   7.881
67294W        W20190  13.609  17.433   2.257
67295W        W20191  25.490  33.023   2.255
67296W        W20192  32.888   4.438   7.798
67297W        W20193   1.693   1.297   2.176
67298W        W20194   9.817   0.765   0.450
67299W        W20195  30.401  31.241   1.264
67300W        W20196   0.888  34.997  10.080
67301W        W20197  17.689  26.361   2.571
67302W        W20198   1.039  18.087   1.594
67303W        W20199   0.430  29.667   3.749
67304W        W20200   6.938  18.060  10.292
67305W        W20201   9.129  10.008   2.730
67306W        W20202  13.175  23.353   2.029
67307W        W20203  18.534   1.565   0.579
67308W        W20204  19.467   3.628   8.442
67309W        W20205   6.695  35.520   7.702
67310W        W20206   3.520  19.650  10.178
67311W        W20207  10.147   3.975   1.565
67312W        W20208  28.679  26.329   2.658
67313W        W20209  23.510  17.027   8.043
67314W        W20210  21.022  12.998   2.605
67315W        W20211  15.254   7.647   2.979
67316W        W20212  30.820   6.800   0.445
67317W        W20213  29.975  19.633   1.966
67318W        W20214  18.087   1.465   2.024
67319W        W20215  30.501   6.346   9.303
67320W        W20216  20.076  31.412   0.627
67321W        W20217   5.951  11.508   8.195
67322W        W20218  31.245  11.553   3.110
67323W        W20219  19.346  16.242   2.114
67324W        W20220   6.046   0.810   0.345
67325W        W20221  16.661  27.961   0.893
67326W        W20222  31.621  27.512   9.212
67327W        W20223   4.374   6.618   8.150
67328W        W20224   1.612   4.808   2.109
67329W        W20225  31.252  25.406   8.408
67330W        W20226  13.682  14.357   9.970
67331W        W20227  31.348   1.723   0.192
67332W        W20228  26.019   8.863   1.146
67333W        W20229  34.667   2.791   3.253
67334W        W20230  19.056   3.349   0.543
67335W        W20231  26.858  25.330   7.590
67336W        W20232  32.061  34.311   9.525
67337W        W20233   3.550   9.725   2.406
67338W        W20234  25.928  15.437   3.160
67339W        W20235  34.608  23.689   8.818
67340W        W20236  10.956  13.101   1.851
67341W        W20237  19.210  17.644   1.080
67342W        W20238  12.648  32.440   8.976
67343W        W20239  34.076  11.644   9.284
67344W        W20240  31.987   7.219   0.933
67345W        W20241   9.549  11.931   8.190
67346W        W20242  13.199  17.519   9.238
67347W        W20243   9.978  21.991   2.269
67348W        W20244  34.705   9.802   1.960
67349W        W20245  32.283  24.341   0.954
67350W        W20246  30.667  25.058   2.575
67351W        W20247   5.333   8.899   3.236
67352W        W20248  34.593  32.678   0.510
67353W        W20249  30.512  33.110   2.820
67354W        W20250  35.314  31.410   4.409
67355W        W20251  26.297  22.067   8.096
67356W        W20252  17.173  15.149   1.643
67357W        W20253  30.640  19.545  10.158
67358W        W20254  16.965  34.131   9.515
67359W        W20255  16.106  20.727   7.228
67360W        W20256   0.389  11.066   2.480
67361W        W20257  22.908  12.005   9.642
67362W        W20258   7.882   2.163   2.711
67363W        W20259   4.005   4.498   8.559
67364W        W20260  26.521  27.035   9.046
67365W        W20261   2.916  32.921   1.102
67366W        W20262   2.817   3.431   7.878
67367W        W20263  11.612   7.826   1.624
67368W        W20264  34.820   5.945   9.220
67369W        W20265  11.342   0.414   0.522
67370W        W20266  11.351  33.374   1.683
67371W        W20267  30.946  11.091   8.140
67372W        W20268  11.050   6.970   2.375
67373W        W20269  24.272   7.865   2.426
67374W        W20270  34.363  32.533   2.525
67375W        W20271   2.977   1.661   3.335
67376W        W20272  30.683  22.764   0.838
67377W        W20273  19.022   5.635   9.195
67378W        W20274  32.908  14.667  10.110
67379W        W20275  21.865  33.039   1.321
67380W        W20276  21.120  13.633   0.286
67381W        W20277  17.164  19.799   9.129
67382W        W20278  18.159   3.286  10.211
67383W        W20279  16.702   9.767   8.409
67384W        W20280   9.573  35.391   7.128
67385W        W20281   0.126   4.628   3.029
67386W        W20282   2.358  28.288   1.183
67387W        W20283  20.275  31.441   1.458
67388W        W20284  17.413  34.373   0.795
67389W        W20285  26.469   7.981   3.539
67390W        W20286   3.096  25.125   9.478
67391W        W20287  27.783   1.752   1.886
67392W        W20288  33.230   7.434   1.283
67393W        W20289   9.154  28.252   8.101
67394W        W20290   2.170  26.626   8.271
67395W        W20291  22.640  33.494   9.720
67396W        W20292  18.133  18.349   1.077
67397W        W20293  25.326  10.308   1.536
67398W        W20294  18.236   1.323   9.405
67399W        W20295  25.795  33.313   2.577
67400W        W20296  30.534  22.000   8.243
67401W        W20297  10.338  22.530   7.386
67402W        W20298   6.612  20.632   8.237
67403W        W20299  35.585  25.067   1.420
67404W        W20300  16.195  16.891   9.954
67405W        W20301   8.087   3.709   8.830
67406W        W20302  24.443   8.161   8.792
67407W        W20303   7.767  15.493   9.698
67408W        W20304  13.802  28.315   2.032
67409W        W20305  25.931  15.319   9.745
67410W        W20306  29.608  23.738   1.485
67411W        W20307  29.202  27.266   8.104
67412W        W20308  21.088  15.143   8.957
67413W        W20309   4.355  14.064   9.106
67414W        W20310  16.614  26.029  10.185
67415W        W20311  35.029  22.734   2.339
67416W        W20312  12.705   4.904   8.139
67417W        W20313   4.629   3.514   9.077
67418W        W20314  33.983   3.758   8.879
67419W        W20315  31.315  28.238   9.335
67420W        W20316   1.916   8.292   2.923
67421W        W20317  27.959  20.307   1.875
67422W        W20318  15.560   9.206   0.475
67423W        W20319  10.365  11.802   7.484
67424W        W20320   3.122   5.022   2.811
67425W        W20321   0.946   9.951   2.996
67426W        W20322  22.621   4.025   9.712
67427W        W20323  31.156  33.051   9.783
67428W        W20324  28.890  34.068   0.996
67429W        W20325  21.915   6.299   8.481
67430W        W20326   8.398  31.913   0.971
67431W        W20327  31.019   7.647   8.108
67432W        W20328  20.472  23.998   0.951
67433W        W20329  10.339   7.432   1.437
67434W        W20330   2.643  26.587  10.124
67435W        W20331   8.124  11.124   1.273
67436W        W20332  30.464  29.950   2.912
67437W        W20333  18.304  19.304   9.157
67438W        W20334   8.229   1.853   1.776
67439W        W20335  24.944  21.850   8.150
67440W        W20336  26.389  20.726   1.211
67441W        W20337  35.136  30.976   0.861
67442W        W20338   3.530  16.411   7.962
67443W        W20339   6.910  13.243   8.558
67444W        W20340   0.695  15.607   7.799
67445W        W20341   9.560  12.400   1.920
67446W        W20342   6.622  22.609   9.088
67447W        W20343   2.950   1.049   8.846
67448W        W20344  28.712  22.717   8.831
67449W        W20345   1.843   3.086   2.561
67450W        W20346  21.781  17.996   0.918
67451W        W20347  19.749  31.852   2.505
67452W        W20348  11.527  23.411   9.317
67453W        W20349   5.993   3.410   9.083
67454W        W20350  30.242  14.403   1.236
67455W        W20351  33.648  25.173   0.656
67456W        W20352   9.818  16.782  10.119
67457W        W20353  20.224  30.571   0.813
67458W        W20354  17.930   1.937   1.739
67459W        W20355  11.845  30.256   1.341
67460W        W20356  29.774  15.482   9.126
67461W        W20357   0.262  18.170   9.521
67462W        W20358  21.523  26.847   3.181
67463W        W20359  30.960   8.089   9.470
67464W        W20360   4.626  19.854   8.269
67465W        W20361  25.178   1.038   7.722
67466W        W20362  11.298  35.362   1.949
67467W        W20363  19.924  30.893   0.599
67468W        W20364   4.183   0.688   7.388
67469W        W20365  24.665  23.748  10.097
67470W        W20366  33.258  20.635   9.477
67471W        W20367  16.979   4.477   8.890
67472W        W20368  35.614  25.383   9.591
67473W        W20369   5.674   0.786   2.062
67474W        W20370  27.268  30.864   7.679
67475W        W20371  23.253  17.668   7.612
67476W        W20372  22.636  20.590   9.052
67477W        W20373  11.547  12.496   1.249
67478W        W20374   2.328  30.194   7.811
67479W        W20375   1.470  17.921   0.903
67480W        W20376  16.409  12.818   9.383
67481W        W20377  10.400  20.674   7.483
67482W        W20378   8.829  30.082   1.800
67483W        W20379  32.981   8.773   2.202
67484W        W20380  18.398  13.615   8.850
67485W        W20381  25.933   3.237   9.122
67486W        W20382  35.180  16.529   0.131
67487W        W20383  30.073  28.199   2.758
67488W        W20384  26.162  19.241   1.168
67489W        W20385  33.826  19.085   1.870
67490W        W20386  28.594  35.165   7.091
67491W        W20387   5.504   8.938  10.293
67492W        W20388  12.231  22.940   7.299
67493W        W20389   8.541  31.923   9.394
67494W        W20390  27.300   3.028   4.085
67495W        W20391  18.771   0.984   9.612
67496W        W20392  25.520  12.350   1.644
67497W        W20393   1.365  32.170   3.870
67498W        W20394   3.462   8.118   9.600
67499W        W20395  14.919  28.499   0.258
67500W        W20396  18.748  25.195   9.653
67501W        W20397   8.792  33.046   2.944
67502W        W20398   2.115   4.187   7.514
67503W        W20399   7.014  10.187   1.194
67504W        W20400   9.660  13.679   1.438
67505W        W20401   6.402  15.758   9.925
67506W        W20402   4.536  19.343   8.587
67507W        W20403  11.647  24.284  10.227
67508W        W20404  26.184   8.911   2.057
67509W        W20405  34.159  35.525   2.592
67510W        W20406   3.514  27.695   8.651
67511W        W20407  34.734   1.296   3.408
67512W        W20408  21.825  11.277   9.159
67513W        W20409  23.822   8.345   9.073
67514W        W20410  33.651  33.803   7.925
67515W        W20411   0.818  33.248   1.450
67516W        W20412  21.486  11.388   3.313
67517W        W20413   0.934  14.368   3.778
67518W        W20414  22.755   6.655   8.969
67519W        W20415   2.829  29.292   2.585
67520W        W20416   4.369   6.179   3.239
67521W        W20417  24.780  13.587  10.009
67522W        W20418  21.279   4.744   1.544
67523W        W20419  16.884  26.908   0.172
67524W        W20420  34.795  15.568   3.293
67525W        W20421  29.111  26.345   7.589
67526W        W20422   5.716  20.612   3.161
67527W        W20423  17.421  11.112   3.465
67528W        W20424  34.993   3.689   7.366
67529W        W20425   7.672  13.598   2.957
67530W        W20426  13.823   5.068   0.159
67531W        W20427  10.748  20.292   7.886
67532W        W20428  23.084  21.145   9.774
67533W        W20429  29.819  24.668   2.297
67534W        W20430  18.364  17.637   9.524
67535W        W20431   3.755  23.573   8.554
67536W        W20432  22.854  18.443   0.617
67537W        W20433  34.657   1.802   0.171
67538W        W20434   1.445   3.618   7.599
67539W        W20435   0.393  15.203   0.814
67540W        W20436   3.690  15.277   0.019
67541W        W20437  17.403  32.173   8.042
67542W        W20438   1.374  24.502   8.290
67543W        W20439  33.862   9.188   0.644
67544W        W20440  29.962  21.177   2.535
67545W        W20441  19.330  29.910   7.567
67546W        W20442   1.048  22.859   8.165
67547W        W20443   7.321   0.577   7.984
67548W        W20444  15.689   4.424   1.887
67549W        W20445   3.938   2.011   9.772
67550W        W20446  16.646  10.486   8.148
67551W        W20447  32.779  17.789   9.790
67552W        W20448  27.293  29.505   6.856
67553W        W20449  23.571  33.752   0.565
67554W        W20450  18.268  11.714   9.407
67555W        W20451   6.772  19.363  10.115
67556W        W20452  25.033   3.609   1.946
67557W        W20453  14.620  22.772   1.748
67558W        W20454   6.081  32.920   2.217
67559W        W20455  18.522  30.112   1.773
67560W        W20456   0.737   3.238   2.046
67561W        W20457   8.092  22.780   2.020
67562W        W20458   1.314  20.583   3.744
67563W        W20459  32.561  10.154  10.047
67564W        W20460   9.098   8.963   0.098
67565W        W20461  17.747   6.153   0.336
67566W        W20462  21.870  29.030   2.972
67567W        W20463  15.557  10.243   3.331
67568W        W20464  10.663  22.902   7.417
67569W        W20465   4.488   4.503  10.063
67570W        W20466  13.947   0.387   9.873
67571W        W20467  17.880  28.650   0.093
67572W        W20468  32.732  23.292   2.840
67573W        W20469  27.968  34.082   2.616
67574W        W20470  21.579  11.218   0.722
67575W        W20471  30.397   9.295   2.860
67576W        W20472  12.541  18.361   2.907
67577W        W20473   4.218  20.607   3.871
67578W        W20474  13.192   1.802   1.837
67579W        W20475  30.529  25.293   9.902
67580W        W20476  26.490   9.666  10.227
67581W        W20477  15.358   6.496   8.572
67582W        W20478  25.558   9.864   3.096
67583W        W20479  28.627  32.099   2.312
67584W        W20480   1.124  33.645   3.244
67585W        W20481  18.042   2.558   9.479
67586W        W20482  15.963  34.843   1.641
67587W        W20483  20.837   9.250   1.789
67588W        W20484  24.817  22.434   0.395
67589W        W20485  28.678  25.976   1.156
67590W        W20486  19.824   0.548   0.239
67591W        W20487  17.318  26.367   0.897
67592W        W20488   0.474  24.256  10.274
67593W        W20489  14.059   4.233   8.759
67594W        W20490  29.140   8.453   9.371
67595W        W20491  17.950   7.449   0.168
67596W        W20492   6.178  23.416   1.900
67597W        W20493  29.435   9.150   9.763
67598W        W20494  21.380  14.578   8.932
67599W        W20495  15.954   5.680   0.266
67600W        W20496   9.559   0.930   1.108
67601W        W20497  21.738  18.850   8.336
67602W        W20498  23.905  15.994   3.240
67603W        W20499   7.624   7.378   7.458
67604W        W20500   5.294   9.108   2.757
67605W        W20501  35.561  30.865   4.486
67606W        W20502  28.312  12.409   8.304
67607W        W20503  30.050  10.376   1.508
67608W        W20504   8.128  23.129   2.419
67609W        W20505  13.637  32.587   9.675
67610W        W20506  23.571  26.905   7.767
67611W        W20507   0.544   3.344   8.166
67612W        W20508  12.540  31.991   2.675
67613W        W20509  25.145  14.721   0.590
67614W        W20510   4.304   2.333   9.804
67615W        W20511  28.407  18.019   0.361
67616W        W20512  35.961   1.021   1.453
67617W        W20513   3.707  11.911   9.158
67618W        W20514  27.790   6.718   0.322
67619W        W20515   3.591  22.831   9.711
67620W        W20516   4.852  26.403   8.556
67621W        W20517   7.013   8.843   0.408
67622W        W20518  16.923   4.415   7.968
67623W        W20519  24.224   3.529   3.306
67624W        W20520  16.851  21.785   8.484
67625W        W20521   1.721  34.039   0.397
67626W        W20522  31.044   2.162   9.797
67627W        W20523   2.764  32.260   8.305
67628W        W20524  35.873   3.535   9.401
67629W        W20525  17.645  21.982   3.170
67630W        W20526  11.599  32.354   3.457
67631W        W20527  27.493  22.750   0.947
67632W        W20528  29.231   6.453   8.435
67633W        W20529  32.210  33.718   8.566
67634W        W20530  12.663  13.423   7.972
67635W        W20531  29.642   0.855   8.254
67636W        W20532  25.983  31.123   8.232
67637W        W20533  26.008  11.377   3.087
67638W        W20534   3.591   7.551   2.030
67639W        W20535  16.510  13.258   9.108
67640W        W20536  34.628  27.785   7.200
67641W        W20537  15.123  19.121   7.655
67642W        W20538   2.985   6.436   0.741
67643W        W20539  12.190  25.691   6.864
67644W        W20540   1.821  14.989   0.028
67645W        W20541   8.055   2.109   9.849
67646W        W20542   3.193  19.394   0.144
67647W        W20543   4.362  19.791   3.070
67648W        W20544   8.918  29.612   0.424
67649W        W20545  34.528   2.217   9.729
67650W        W20546   0.300  13.892   1.061
67651W        W20547   4.492   4.567   2.770
67652W        W20548  28.567  15.721   1.189
67653W        W20549  23.634  32.997   9.116
67654W        W20550  32.950  11.334   1.038
67655W        W20551   2.784   1.888  10.038
67656W        W20552  31.180  20.435  10.048
67657W        W20553  27.735  25.271   2.444
67658W        W20554  11.949  20.516   7.539
67659W        W20555   4.452  10.743   1.295
67660W        W20556  21.920   2.910   1.477
67661W        W20557  21.625  10.891   8.215
67662W        W20558  22.489  17.544   1.295
67663W        W20559   2.975  12.004   3.200
67664W        W20560  16.900  32.188   1.577
67665W        W20561  29.080  12.931   1.802
67666W        W20562   6.577   1.284   3.369
67667W        W20563  20.740   2.003   1.841
67668W        W20564  10.637  28.792   2.574
67669W        W20565  29.169  11.942   8.268
67670W        W20566  31.934  27.450   2.427
67671W        W20567   6.989   2.481   9.155
67672W        W20568  32.290   7.599   1.110
67673W        W20569  20.694  13.961   7.661
67674W        W20570  12.761   0.320   1.060
67675W        W20571  24.183  30.332   8.605
67676W        W20572  21.957  24.184   0.181
67677W        W20573   4.323  31.694   7.764
67678W        W20574  15.099  28.149   9.837
67679W        W20575  35.096  28.270   0.809
67680W        W20576  14.660  22.883   7.545
67681W        W20577   8.648   8.415   0.736
67682W        W20578  24.701  28.592   8.172
67683W        W20579  35.523  19.474   1.098
67684W        W20580  11.317  25.351   1.419
67685W        W20581  18.774  26.932   2.659
67686W        W20582  14.177  10.963   0.555
67687W        W20583   9.336  12.520   7.732
67688W        W20584   6.100  13.821   0.964
67689W        W20585  17.038  21.986   9.048
67690W        W20586  13.003  32.867   7.636
67691W        W20587   2.327  20.849   8.634
67692W        W20588  13.348  20.318   8.832
67693W        W20589   4.362   2.176   0.549
67694W        W20590  35.660  23.291   0.208
67695W        W20591   9.588  23.846   9.530
67696W        W20592  29.187  35.141  10.142
67697W        W20593  33.102  33.727   0.568
67698W        W20594  12.931  31.940   1.316
67699W        W20595   5.204  20.068   3.533
67700W        W20596  35.573   0.775  10.002
67701W        W20597  32.637   4.884   2.840
67702W        W20598  23.478  23.601   8.030
67703W        W20599  16.411  16.530   1.133
67704W        W20600  22.173  32.897   2.603
67705W        W20601  32.521  15.238   0.359
67706W        W20602   3.189  29.284   1.208
67707W        W20603  27.827  25.186   1.931
67708W        W20604  22.457   2.490   8.419
67709W        W20605   7.170   3.009  10.191
67710W        W20606   3.438   1.180   2.250
67711W        W20607   7.464  26.034   9.959
67712W        W20608   3.939  24.523   8.373
67713W        W20609  35.226  34.633   3.272
67714W        W20610  31.586  32.929   0.305
67715W        W20611  27.933  30.184   0.597
67716W        W20612  16.502  28.635   2.280
67717W        W20613   0.890   4.040   0.697
67718W        W20614  23.150  10.346   0.391
67719W        W20615  30.644  33.047  10.051
67720W        W20616  33.584  32.305   3.069
67721W        W20617  30.763  20.097   1.637
67722W        W20618   6.634  30.536   9.869
67723W        W20619  23.353  10.753   8.573
67724W        W20620  34.303  33.049   0.297
67725W        W20621  28.313  10.963   9.634
67726W        W20622  14.176  25.641   8.680
67727W        W20623   0.423   4.073   0.930
67728W        W20624  20.608  12.103   1.352
67729W        W20625   3.543  17.881   9.862
67730W        W20626  17.705  30.105   0.161
67731W        W20627  17.579   7.913   1.080
67732W        W20628  13.007  22.327   9.294
67733W        W20629  19.439  13.945   9.926
67734W        W20630  18.167   1.970   2.209
67735W        W20631  17.924  17.092   7.332
67736W        W20632  14.912  21.133  10.097
67737W        W20633   5.973  18.885   9.367
67738W        W20634   4.582   7.951   0.872
67739W        W20635  15.002  12.862   7.666
67740W        W20636  35.365  32.531   3.575
67741W        W20637  35.760  33.015   1.574
67742W        W20638  32.351   4.033   2.596
67743W        W20639  33.973  20.158  10.061
67744W        W20640   7.581  16.756   7.372
67745W        W20641  23.692  15.789   2.001
67746W        W20642  25.775   9.074   9.462
67747W        W20643   3.518  27.789   8.215
67748W        W20644  21.797  31.017   0.589
67749W        W20645   7.653  17.387  10.116
67750W        W20646  16.940   7.776   9.408
67751W        W20647  21.073   3.172   9.000
67752W        W20648  19.147  17.075  10.206
67753W        W20649  15.923  25.171  10.053
67754W        W20650  33.317   1.656   0.956
67755W        W20651  15.526  16.319   8.003
67756W        W20652  22.413  12.232   3.311
67757W        W20653  12.140  20.818   8.221
67758W        W20654  13.459  14.767   9.686
67759W        W20655  20.050  24.228   2.874
67760W        W20656  32.538  19.528   3.049
67761W        W20657   7.954  21.261   9.963
67762W        W20658   7.891  23.972   3.261
67763W        W20659  34.737  27.325  10.008
67764W        W20660  18.086  34.308   0.543
67765W        W20661  20.194  10.498  10.089
67766W        W20662   6.818   4.628   8.710
67767W        W20663  23.693  25.305   1.977
67768W        W20664  25.131   9.080   9.345
67769W        W20665  17.162  12.420   9.322
67770W        W20666   2.139  21.740   9.948
67771W        W20667  33.997  23.553   2.639
67772W        W20668  19.519   6.316   9.160
67773W        W20669  14.864  35.549   0.255
67774W        W20670  13.170   4.651   8.147
67775W        W20671  16.830   9.991   0.769
67776W        W20672  16.520  34.548   7.064
67777W        W20673  20.204  30.117   1.147
67778W        W20674   1.291  26.684  10.186
67779W        W20675   0.483   9.580   1.115
67780W        W20676   7.296  27.307   9.936
67781W        W20677  20.008   1.571   9.274
67782W        W20678  11.113  25.149   0.634
67783W        W20679   3.020  23.965   0.748
67784W        W20680  22.065   2.349   2.470
67785W        W20681  18.138  35.706   3.026
67786W        W20682  18.750  24.718   1.610
67787W        W20683  16.722  13.135   8.695
67788W        W20684  22.986   5.345   1.292
67789W        W20685  17.564   3.302   7.625
67790W        W20686  14.117  31.988   2.929
67791W        W20687  26.641  31.877   6.726
67792W        W20688   0.074   8.539   9.596
67793W        W20689  22.798  31.916   1.951
67794W        W20690  32.103  18.985   1.933
67795W        W20691  30.557  12.488   2.744
67796W        W20692  33.438   1.351   2.160
67797W        W20693  14.882   1.755   9.187
67798W        W20694  20.053  18.595   9.863
67799W        W20695   3.839  20.022   9.925
67800W        W20696  33.472  28.179   2.378
67801W        W20697  29.615  21.170   9.528
67802W        W20698   4.336   7.734   9.438
67803W        W20699   9.687   5.213   7.710
67804W        W20700  36.010  33.998   8.488
67805W        W20701   3.145  32.570   3.900
67806W        W20702  24.072  10.754   9.513
67807W        W20703  14.579  28.151   8.552
67808W        W20704  28.268   9.384   1.501
67809W        W20705  17.754   5.495   9.904
67810W        W20706  22.754   5.338   8.789
67811W        W20707   4.033  33.344   3.414
67812W        W20708  19.975  30.189   8.673
67813W        W20709   6.345   8.964   9.193
67814W        W20710  26.457  16.573   9.121
67815W        W20711  26.156   4.372   2.787
67816W        W20712   5.357   9.757   0.063
67817W        W20713  24.274  17.814   3.311
67818W        W20714   4.565  34.229   9.587
67819W        W20715   6.756  30.940   2.069
67820W        W20716  17.141  15.799   1.411
67821W        W20717  35.173  33.624   8.578
67822W        W20718   6.820  30.607   0.007
67823W        W20719   1.236  23.632   8.719
67824W        W20720   4.742  21.430   2.151
67825W        W20721   3.823  19.339   1.871
67826W        W20722   3.413  19.812   9.701
67827W        W20723   9.230  29.578   3.224
67828W        W20724  19.935  20.357   7.881
67829W        W20725  26.238   8.395   2.716
67830W        W20726  31.710  13.831   7.801
67831W        W20727   6.581   9.032   2.332
67832W        W20728   6.003  18.950   7.963
67833W        W20729   7.520  16.207   8.838
67834W        W20730   9.595  33.689  10.193
67835W        W20731   4.567   9.833   2.631
67836W        W20732  18.706  25.015   8.259
67837W        W20733  13.514   1.347   8.131
67838W        W20734  35.035  20.704   1.745
67839W        W20735  16.323  13.669   8.869
67840W        W20736  25.393  16.721   2.010
67841W        W20737   0.689  16.544   7.490
67842W        W20738   6.315  12.615   0.021
67843W        W20739  24.749  26.337   1.072
67844W        W20740  17.538  11.335   8.377
67845W        W20741  19.155  28.349   1.140
67846W        W20742  15.379  18.043   1.669
67847W        W20743   5.579  19.273   7.844
67848W        W20744  13.824  10.352   3.851
67849W        W20745  10.043  27.788   7.624
67850W        W20746  19.223  13.403   1.902
67851W        W20747  11.096  27.328   1.251
67852W        W20748  28.041  32.317   9.282
67853W        W20749  24.360  34.025   1.738
67854W        W20750  33.459  35.712   0.831
67855W        W20751  33.049  29.651   8.638
67856W        W20752  35.778  30.419   4.365
67857W        W20753  26.550  21.143   0.913
67858W        W20754   0.447   1.302   8.935
67859W        W20755  13.606  33.807   1.167
67860W        W20756  34.663  15.244   2.016
67861W        W20757  24.806  26.825   1.054
67862W        W20758   5.721  24.680   0.264
67863W        W20759   9.962  20.405   7.499
67864W        W20760  19.486  33.723   8.359
67865W        W20761  35.737  20.633   0.842
67866W        W20762   8.297  11.185   8.024
67867W        W20763  28.671   5.867   9.932
67868W        W20764  29.936   6.040   7.594
67869W        W20765   3.111  17.641   1.569
67870W        W20766   1.249  29.044  10.171
67871W        W20767   9.777  24.857   9.586
67872W        W20768   8.855  22.027   0.338
67873W        W20769   3.083  33.308   3.042
67874W        W20770  32.715  22.604   1.608
67875W        W20771   2.617   3.164   3.478
67876W        W20772   8.244  27.297   0.813
67877W        W20773   5.415  26.361   7.836
67878W        W20774  29.898  25.716   1.167
67879W        W20775  19.520  15.893   0.104
67880W        W20776  29.694  14.347   7.421
67881W        W20777  19.059  21.113   1.729
67882W        W20778  19.334  13.148  10.334
67883W        W20779  15.571  25.668   2.225
67884W        W20780  15.178  23.495   3.395
67885W        W20781  30.675  12.483   9.061
67886W        W20782  25.409  10.177   9.784
67887W        W20783   7.994  15.126   8.599
67888W        W20784  25.930  31.440   2.764
67889W        W20785  32.273  22.011   8.926
67890W        W20786  20.952  15.793   1.777
67891W        W20787  27.326  17.932   2.099
67892W        W20788  10.795   4.899   9.539
67893W        W20789  30.908  26.137   9.938
67894W        W20790  18.804  19.121   8.514
67895W        W20791  27.701  21.227   9.127
67896W        W20792  27.661  15.410   3.206
67897W        W20793   1.774   5.136   9.625
67898W        W20794  17.075   9.794   3.345
67899W        W20795  24.617  31.028   7.480
67900W        W20796  27.812   5.000   1.183
67901W        W20797  27.111  25.908   2.438
67902W        W20798  22.859   0.110   1.244
67903W        W20799  16.922  28.156   7.768
67904W        W20800  22.835  12.944   7.620
67905W        W20801  33.777  13.849   2.124
67906W        W20802   5.526   1.888   0.823
67907W        W20803  21.719  24.240   2.645
67908W        W20804  21.045  13.886  10.169
67909W        W20805  24.027  18.269   0.826
67910W        W20806   8.008  17.081   1.422
67911W        W20807  26.131  22.216   8.532
67912W        W20808  17.135  11.951   7.504
67913W        W20809  23.696  11.524   7.999
67914W        W20810   0.288  31.447   2.744
67915W        W20811  35.449   6.549   9.021
67916W        W20812  33.089   4.728   9.528
67917W        W20813  15.474   3.878   7.061
67918W        W20814  18.843  12.871   3.609
67919W        W20815  11.182  12.418   2.772
67920W        W20816  13.595  18.336   0.696
67921W        W20817   6.473  31.040   0.279
67922W        W20818   2.079  27.051   8.009
67923W        W20819   5.364  23.172   2.978
67924W        W20820  11.280  14.729   0.861
67925W        W20821  34.201   3.124   0.024
67926W        W20822  19.101  29.845   2.430
67927W        W20823  15.748  19.121   3.284
67928W        W20824  22.126  11.212   2.992
67929W        W20825   5.257  24.779   0.682
67930W        W20826  27.992   7.170   0.646
67931W        W20827  30.248  27.738   8.570
67932W        W20828  14.752  15.015   9.033
67933W        W20829  33.513  17.882   8.662
67934W        W20830  17.289   4.609   1.146
67935W        W20831   4.372   4.773   8.146
67936W        W20832  22.002  20.363   9.779
67937W        W20833  17.106   3.247   8.165
67938W        W20834  11.964  13.398   9.619
67939W        W20835   7.265  11.893   3.038
67940W        W20836   8.390   7.566   0.395
67941W        W20837  21.507  35.255   2.654
67942W        W20838  13.611  33.706   1.696
67943W        W20839   5.841  25.250   7.858
67944W        W20840  15.325  26.613  10.105
67945W        W20841  35.700  25.295   9.011
67946W        W20842  27.114   3.586   1.512
67947W        W20843  11.663  13.499   2.200
67948W        W20844  27.532  36.006   9.455
67949W        W20845   0.074  32.233   2.358
67950W        W20846  12.134  17.857   0.383
67951W        W20847  11.108  11.568   8.251
67952W        W20848   9.069  35.943   3.100
67953W        W20849  15.111  20.776   7.786
67954W        W20850   5.241  24.129   9.011
67955W        W20851   4.321  14.990   8.149
67956W        W20852  35.839   0.455   2.234
67957W        W20853  26.941   4.211   8.437
67958W        W20854  33.591   8.856   9.514
67959W        W20855  31.296  21.976   2.290
67960W        W20856  34.695  35.565   0.528
67961W        W20857  18.085  23.940   9.430
67962W        W20858   7.216  19.787   1.345
67963W        W20859  33.871  12.030   1.941
67964W        W20860  21.667   7.636   1.115
67965W        W20861  10.176  15.285   2.551
67966W        W20862   8.022   9.884   9.335
67967W        W20863  18.009  23.121   8.262
67968W        W20864   3.741  34.444   1.652
67969W        W20865  21.364  28.563   2.309
67970W        W20866   6.370   1.729   9.822
67971W        W20867  23.339  26.103   0.655
67972W        W20868  21.165  25.968   2.098
67973W        W20869  26.874  19.422   8.560
67974W        W20870   7.859  32.744   2.139
67975W        W20871  31.433  22.613   9.370
67976W        W20872  31.914  12.425   2.854
67977W        W20873  16.999  20.522   2.915
67978W        W20874   5.358  12.552   2.081
67979W        W20875  28.716  27.957  10.219
67980W        W20876  13.585   0.445   7.971
67981W        W20877   9.752   3.600   1.539
67982W        W20878  14.117   4.529   9.802
67983W        W20879  11.581   2.829   7.608
67984W        W20880  28.383  21.032   8.686
67985W        W20881   2.390  33.853   8.573
67986W        W20882  20.725   4.268  10.210
67987W        W20883  28.576  33.748   7.527
67988W        W20884  26.910  33.836   7.918
67989W        W20885  18.684  14.327   8.281
67990W        W20886  17.343  10.119   3.106
67991W        W20887  15.078  31.628   8.481
67992W        W20888  17.693  25.959   0.179
67993W        W20889  33.830  18.483   3.099
67994W        W20890  12.987   1.929   8.627
67995W        W20891  29.773   5.732   1.764
67996W        W20892  15.378   3.955   1.824
67997W        W20893  30.563  16.775   1.881
67998W        W20894  22.099  18.012   2.215
67999W        W20895  30.466   7.070   2.393
68000W        W20896  18.279  18.379   8.135
68001W        W20897   0.952   2.916   2.880
68002W        W20898  24.447  13.291   1.831
68003W        W20899  13.756   2.163  10.283
68004W        W20900   3.359  11.514   0.795
68005W        W20901  13.540  28.199   1.488
68006W        W20902  23.048  10.418   9.584
68007W        W20903  21.637  12.179   1.880
68008W        W20904  17.124   6.857   8.194
68009W        W20905  23.721   5.742   8.510
68010W        W20906  29.492  25.015   0.672
68011W        W20907  16.921  27.416   1.785
68012W        W20908  21.729   4.954   8.374
68013W        W20909   9.134  35.813   2.473
68014W        W20910  18.714  11.677   8.374
68015W        W20911   8.700   0.807   0.107
68016W        W20912  31.438  27.734   0.258
68017W        W20913  23.148  33.218   9.013
68018W        W20914   6.813  29.742   0.602
68019W        W20915  18.228  21.746   8.602
68020W        W20916  13.415   8.177   8.197
68021W        W20917  32.071   9.016   7.520
68022W        W20918  28.571  21.743   1.457
68023W        W20919  14.764  33.371   2.525
68024W        W20920  16.523  19.918   2.575
68025W        W20921  11.144   8.066   9.257
68026W        W20922  35.681   7.592   1.247
68027W        W20923  10.160  34.597   8.942
68028W        W20924  20.237   2.229   1.379
68029W        W20925  17.195   9.748   8.474
68030W        W20926   5.913   5.224   9.674
68031W        W20927  19.128  19.022   1.419
68032W        W20928   7.884   5.351   1.962
68033W        W20929  13.996   4.469   0.177
68034W        W20930  35.373   5.939   8.409
68035W        W20931  22.179   4.109   9.506
68036W        W20932   9.775  26.063   7.420
68037W        W20933  21.521  21.831   0.554
68038W        W20934  33.007  33.858   1.708
68039W        W20935  17.381  25.770   8.096
68040W        W20936  23.807  27.656   0.475
68041W        W20937  16.979  34.719   9.907
68042W        W20938   5.055  29.652  10.160
68043W        W20939  34.605  35.021  10.132
68044W        W20940   7.867  10.165   8.739
68045W        W20941  33.234  13.539   8.169
68046W        W20942  29.475  16.238   2.819
68047W        W20943   3.856   7.950   8.716
68048W        W20944   3.280  22.934   7.383
68049W        W20945  20.712  28.913   0.105
68050W        W20946  14.083  21.683   3.187
68051W        W20947   6.316  27.614   9.131
68052W        W20948  16.933  31.163   8.598
68053W        W20949  30.638  28.561   9.722
68054W        W20950  30.241  35.219   2.724
68055W        W20951  23.089   7.075   8.833
68056W        W20952  19.446  14.515   2.879
68057W        W20953   3.595  15.470   1.457
68058W        W20954   2.791  11.720   9.872
68059W        W20955   7.356  10.686   3.548
68060W        W20956  25.839  30.241   1.482
68061W        W20957   5.378  27.372   0.974
68062W        W20958   9.979  19.101   2.340
68063W        W20959  16.536   0.959   2.747
68064W        W20960  14.111  33.946   0.952
68065W        W20961   0.084  26.841   9.751
68066W        W20962   6.657  17.649   9.172
68067W        W20963  20.219   3.299   3.086
68068W        W20964   0.438   7.521   9.461
68069W        W20965  12.678  19.046   2.897
68070W        W20966   2.595  28.609  10.278
68071W        W20967  27.008  29.082   7.552
68072W        W20968  20.291  23.933   3.674
68073W        W20969  26.549  18.938   1.805
68074W        W20970  30.210   1.081   7.790
68075W        W20971  24.665   3.809   0.524
68076W        W20972  30.739  10.312   8.861
68077W        W20973  10.313  30.709   8.408
68078W        W20974   1.421  16.296   8.717
68079W        W20975   3.853   4.760   7.476
68080W        W20976  14.083  12.992   7.408
68081W        W20977  13.630  17.917   8.195
68082W        W20978  20.736  12.771  10.129
68083W        W20979  17.266  33.138   2.375
68084W        W20980  28.384  25.235   0.560
68085W        W20981   1.038   3.692   9.093
68086W        W20982   4.149  19.846   0.950
68087W        W20983  16.909  35.616   1.446
68088W        W20984  11.670  22.536   0.613
68089W        W20985  19.714   3.467   7.060
68090W        W20986  19.144  26.240   9.268
68091W        W20987  16.654  26.656   8.906
68092W        W20988  13.750  17.655   8.983
68093W        W20989   4.792   6.418   1.186
68094W        W20990   1.730  29.178  10.292
68095W        W20991   7.869  21.833   2.807
68096W        W20992  10.621  35.323   9.164
68097W        W20993   4.099  25.116   9.477
68098W        W20994  10.994   6.259   1.372
68099W        W20995  29.862  16.372   0.080
68100W        W20996  19.782  10.933   1.705
68101W        W20997   8.758  27.628  10.259
68102W        W20998   6.621   4.406   2.468
68103W        W20999   8.416  19.815  10.049
68104W        W21000  28.899  29.591   8.201
68105W        W21001  32.825  25.948   0.247
68106W        W21002  27.831  27.749  10.213
68107W        W21003  34.421   6.073   0.542
68108W        W21004  33.109   1.899   9.372
68109W        W21005   2.139  12.745   1.262
68110W        W21006  23.138   3.813  10.054
68111W        W21007  19.335  15.249   1.617
68112W        W21008  25.912   1.550   7.750
68113W        W21009  17.496   5.292   2.568
68114W        W21010   1.394   8.660   8.223
68115W        W21011  20.500  26.017   9.761
68116W        W21012   0.713  12.015   9.420
68117W        W21013  26.780  21.014   2.168
68118W        W21014  11.455  19.412   8.482
68119W        W21015  19.836  27.193   9.526
68120W        W21016  11.022  23.865   0.822
68121W        W21017  34.370  22.723   9.981
68122W        W21018  31.187  20.994   7.481
68123W        W21019   6.328  10.408   9.932
68124W        W21020  15.912  21.923   8.655
68125W        W21021   3.370  30.830   9.977
68126W        W21022  12.983  28.759   8.929
68127W        W21023  18.206   3.780  10.310
68128W        W21024  19.450   5.117   2.195
68129W        W21025  34.025  13.461   0.359
68130W        W21026  19.782   8.135   1.390
68131W        W21027  10.376  19.573   9.066
68132W        W21028  11.324  11.531   2.997
68133W        W21029  17.456  29.322   7.954
68134W        W21030  16.676  16.521  10.061
68135W        W21031  14.390  12.076   7.290
68136W        W21032  11.034  21.277   0.095
68137W        W21033  12.271   2.635   0.884
68138W        W21034  35.884  19.927   7.426
68139W        W21035  27.614   6.857   9.345
68140W        W21036  13.764  28.510   8.997
68141W        W21037  20.447  17.454   0.831
68142W        W21038   7.940   2.274   1.838
68143W        W21039  30.621  22.988  10.312
68144W        W21040  10.960   2.701   8.182
68145W        W21041  32.041   8.111   1.155
68146W        W21042  32.726  19.318   0.872
68147W        W21043  22.663  32.642   8.080
68148W        W21044  24.890  13.973   0.778
68149W        W21045  19.818   2.524   1.330
68150W        W21046   9.260   8.820   1.665
68151W        W21047   9.459   4.467   1.284
68152W        W21048  32.772  21.541   8.184
68153W        W21049  13.760   4.678   9.011
68154W        W21050  26.626  25.070   2.778
68155W        W21051  13.274  21.654   8.742
68156W        W21052  32.102  28.371   9.040
68157W        W21053  17.532   9.142   2.065
68158W        W21054  22.215  26.346   0.554
68159W        W21055  16.013   0.864   7.725
68160W        W21056  15.643  21.151   2.671
68161W        W21057  10.944  19.971   1.251
68162W        W21058   4.219  13.910   1.707
68163W        W21059  32.732  15.635   8.781
68164W        W21060  16.185   4.112   2.668
68165W        W21061  35.321   7.972   8.818
68166W        W21062  33.571   0.531   0.371
68167W        W21063  15.548   5.757   0.595
68168W        W21064  33.904   9.649  10.162
68169W        W21065  22.105  17.355   9.408
68170W        W21066   1.780   7.135   1.386
68171W        W21067   2.635  16.323   9.163
68172W        W21068  15.597  29.569   2.401
68173W        W21069   5.191  32.249   2.206
68174W        W21070  15.625  21.567   9.453
68175W        W21071   4.933  16.062   9.100
68176W        W21072  23.339  28.222   3.139
68177W        W21073   4.142  32.631  10.184
68178W        W21074  22.444  33.696   4.027
68179W        W21075  33.479  25.199   2.717
68180W        W21076   0.315  18.813   7.613
68181W        W21077  22.656   1.858   1.756
68182W        W21078  30.667  35.004   6.957
68183W        W21079  27.483  16.205   2.966
68184W        W21080   6.405  11.264   1.912
68185W        W21081  13.544  35.103   7.535
68186W        W21082  11.385   4.396   7.754
68187W        W21083  35.739  30.179   1.019
68188W        W21084   9.044  16.911   9.144
68189W        W21085  14.657  10.337   0.278
68190W        W21086  16.012   5.464   8.152
68191W        W21087  16.087   3.391   8.442
68192W        W21088  35.738   9.435   0.274
68193W        W21089   2.388  12.205  10.250
68194W        W21090  29.226  13.819   9.810
68195W        W21091   8.453  26.428   7.622
68196W        W21092  26.353  29.217   9.734
68197W        W21093  25.936   5.186   1.294
68198W        W21094  22.694  18.202   2.714
68199W        W21095  19.280  30.365   1.953
68200W        W21096  14.085  14.361   2.184
68201W        W21097  20.047  19.430   2.395
68202W        W21098  29.466  31.000   9.471
68203W        W21099  24.072   1.667   8.842
68204W        W21100  15.012  13.688   1.471
68205W        W21101  33.318  25.443   1.850
68206W        W21102  34.660  16.204   2.031
68207W        W21103  26.135   9.349   0.819
68208W        W21104   1.412  15.552   0.679
68209W        W21105  19.424  10.035   0.106
68210W        W21106  21.780  28.993   7.508
68211W        W21107  10.766  20.966   9.182
68212W        W21108   9.086   8.303   2.585
68213W        W21109  32.267  27.223   1.690
68214W        W21110  29.574   4.419   9.228
68215W        W21111  31.539   5.030   1.158
68216W        W21112  21.998  31.912   9.793
68217W        W21113   2.184  14.035   9.978
68218W        W21114  31.681  17.653   2.325
68219W        W21115   2.131   2.859   0.267
68220W        W21116  17.652   6.794   1.046
68221W        W21117   7.354  33.781  10.181
68222W        W21118   8.356   2.925   8.154
68223W        W21119   2.634  33.853   1.194
68224W        W21120   6.114  16.230   7.836
68225W        W21121   4.992  19.508   0.908
68226W        W21122  12.600  16.138  10.187
68227W        W21123  30.743  27.032   7.910
68228W        W21124  27.120   4.758   0.746
68229W        W21125  30.003  33.423   8.683
68230W        W21126  24.746   7.238   2.172
68231W        W21127  11.611   5.686   1.880
68232W        W21128  24.397  10.836   1.331
68233W        W21129  25.603  30.522   8.623
68234W        W21130  18.699  31.367   0.427
68235W        W21131  29.505  32.214   1.372
68236W        W21132  21.082  24.821   2.170
68237W        W21133  11.851  30.979   2.192
68238W        W21134   2.876  11.556   8.649
68239W        W21135   0.357  30.375   3.525
68240W        W21136  26.775  11.394   2.874
68241W        W21137  29.411  19.057   9.248
68242W        W21138   4.478  19.005  10.121
68243W        W21139  35.818  10.550   9.409
68244W        W21140  35.569  13.992   8.764
68245W        W21141   6.321   0.699   1.460
68246W        W21142  35.485  23.459   1.117
68247W        W21143  11.627  32.559   0.057
68248W        W21144   0.614  31.367   2.340
68249W        W21145  28.475  34.148   8.818
68250W        W21146  15.503   7.511   8.856
68251W        W21147   4.220   2.277   1.018
68252W        W21148  26.495   0.557   3.517
68253W        W21149  35.128   3.501   2.600
68254W        W21150   2.343   1.529   1.755
68255W        W21151  32.160   8.648   8.850
68256W        W21152  28.823  20.114   9.582
68257W        W21153  19.630  30.306   0.357
68258W        W21154  24.950  18.581   0.976
68259W        W21155  21.912  19.799   2.170
68260W        W21156   9.089  33.477  10.201
68261W        W21157  26.680  21.801   2.603
68262W        W21158   3.960   4.936   1.006
68263W        W21159  28.427   7.699  10.289
68264W        W21160   3.719  35.150   2.671
68265W        W21161  17.586  32.368   9.176
68266W        W21162  20.784  29.689  10.157
68267W        W21163  30.184  34.870   9.070
68268W        W21164  20.637  10.218   7.527
68269W        W21165   8.136  25.862   3.315
68270W        W21166   6.771   2.742   7.630
68271W        W21167  30.764  22.916   7.213
68272W        W21168  22.047  21.223   3.965
68273W        W21169  21.964   1.712   9.064
68274W        W21170  15.076  24.532   2.017
68275W        W21171  15.773  17.679   8.125
68276W        W21172   2.504  23.434   2.128
68277W        W21173  24.194  13.671   0.257
68278W        W21174  35.160  25.158   1.666
68279W        W21175   9.172  27.057   9.612
68280W        W21176  33.932  28.281   0.281
68281W        W21177  10.743  29.433   0.487
68282W        W21178  13.217  24.872  10.153
68283W        W21179  31.805  24.638   1.443
68284W        W21180  17.177  10.183   9.891
68285W        W21181  18.639  26.310   0.297
68286W        W21182  15.960   1.119   1.901
68287W        W21183   6.272  32.942   9.457
68288W        W21184  34.198  14.441   3.018
68289W        W21185  29.752  24.402   8.239
68290W        W21186   5.289  23.600   3.594
68291W        W21187   8.304  18.817   8.217
68292W        W21188  25.434  27.849   0.113
68293W        W21189  17.931  32.539   8.827
68294W        W21190   7.668   2.372   8.354
68295W        W21191   9.991  35.366   2.379
68296W        W21192  25.264  30.139   0.224
68297W        W21193  30.724  25.232   0.007
68298W        W21194  15.682   8.153   8.077
68299W        W21195   3.221   3.685   8.030
68300W        W21196  11.266  25.581   0.981
68301W        W21197  11.375  18.682   8.709
68302W        W21198  31.179  31.612   0.084
68303W        W21199  10.424   2.282   8.571
68304W        W21200  20.085  35.668   9.729
68305W        W21201  32.009  22.593   7.079
68306W        W21202   8.963   3.423   0.742
68307W        W21203   9.258  12.969   9.044
68308W        W21204  33.768  26.830   0.424
68309W        W21205  29.449  13.498  10.112
68310W        W21206  30.719  14.823   0.046
68311W        W21207  27.699  25.348   8.500
68312W        W21208  11.326  21.212   1.896
68313W        W21209  27.395  18.879   9.942
68314W        W21210  27.418   7.457   0.633
68315W        W21211  17.183  21.063   9.306
68316W        W21212  15.775   1.843   2.211
68317W        W21213  35.483  12.994   3.045
68318W        W21214   6.480  13.082   7.519
68319W        W21215  35.632  13.532   8.515
68320W        W21216   1.107   1.964   8.128
68321W        W21217  31.545   7.821   1.760
68322W        W21218  16.616   1.185   1.143
68323W        W21219  31.521  23.128   0.519
68324W        W21220  30.882  11.657   1.564
68325W        W21221  22.479  27.024   1.506
68326W        W21222  15.603  20.217   9.928
68327W        W21223  13.783  15.024   1.483
68328W        W21224  29.383  13.589   2.593
68329W        W21225   1.912  10.012   1.825
68330W        W21226  13.336   1.544   1.406
68331W        W21227  12.252  31.546   0.775
68332W        W21228   5.225  15.631   9.972
68333W        W21229   8.216   3.476   2.398
68334W        W21230  10.615  20.977   7.824
68335W        W21231  31.517   2.690   7.522
68336W        W21232   4.251  22.183   8.731
68337W        W21233   1.855  14.921   2.193
68338W        W21234   0.919  21.090   1.339
68339W        W21235  11.433   2.510   0.529
68340W        W21236   0.972  13.764   1.717
68341W        W21237   0.514  11.132   7.290
68342W        W21238  17.107  23.273   3.576
68343W        W21239  34.410   8.615   9.556
68344W        W21240  13.182  21.290   3.350
68345W        W21241   7.411   4.482   8.770
68346W        W21242  16.288   9.104   3.785
68347W        W21243  27.175  32.572   9.238
68348W        W21244  28.872  17.381   2.851
68349W        W21245   4.240  11.291   3.309
68350W        W21246  25.297  31.823  10.241
68351W        W21247  29.549  10.043   8.177
68352W        W21248  27.754  10.115   8.324
68353W        W21249  15.948   0.653   8.180
68354W        W21250  10.749  10.154   9.552
68355W        W21251  11.725   0.990   8.888
68356W        W21252   2.976  24.561  10.325
68357W        W21253   6.846   5.961   1.517
68358W        W21254   6.273   8.604   2.400
68359W        W21255  24.213   1.814   2.524
68360W        W21256  35.148  29.334   0.604
68361W        W21257  33.071  33.399   2.072
68362W        W21258  26.498  28.487   8.544
68363W        W21259  14.394  13.048   9.813
68364W        W21260   4.035   7.554   8.431
68365W        W21261  23.294  17.305   9.230
68366W        W21262   3.644  24.151   2.632
68367W        W21263  15.970  14.382   7.761
68368W        W21264  27.136  33.044   7.494
68369W        W21265  12.034  15.173   8.873
68370W        W21266   0.409  28.827   2.368
68371W        W21267   5.466  16.027   1.430
68372W        W21268  26.000   9.628   3.007
68373W        W21269  11.155  25.716   2.748
68374W        W21270   4.847  18.448   1.464
68375W        W21271  28.735  35.238   9.434
68376W        W21272  11.688   9.042   3.022
68377W        W21273  17.467  14.568   9.957
68378W        W21274  24.563  18.404   1.293
68379W        W21275  11.929   9.913   0.635
68380W        W21276  15.422  21.130   7.991
68381W        W21277  16.320  30.427   8.550
68382W        W21278  29.555   9.125   8.704
68383W        W21279  17.333   7.770   2.860
68384W        W21280  35.351  10.212   0.672
68385W        W21281  30.606  29.783   8.044
68386W        W21282  13.213  13.155   2.290
68387W        W21283  33.112   4.593  10.284
68388W        W21284  10.562  22.899   0.717
68389W        W21285  24.306  35.123   9.576
68390W        W21286   9.554  16.833   3.745
68391W        W21287   2.632  28.872   2.900
68392W        W21288  16.189   0.516   7.004
68393W        W21289   3.789   8.782   9.048
68394W        W21290  13.446  11.495   8.184
68395W        W21291  22.338  25.893   8.249
68396W        W21292  28.079   4.562   8.047
68397W        W21293  34.596  17.015   9.188
68398W        W21294  14.038   7.504   8.205
68399W        W21295  29.894  26.666   7.764
68400W        W21296   2.643  34.428   8.133
68401W        W21297  35.147  26.145   7.912
68402W        W21298   8.993  12.290   9.813
68403W        W21299  28.720  29.083   7.711
68404W        W21300   5.215   7.230   7.896
68405W        W21301   9.764   2.327   2.303
68406W        W21302  29.900  32.483   1.489
68407W        W21303  11.254  35.637   0.560
68408W        W21304   9.643  31.078   0.461
68409W        W21305   2.380   5.442   8.825
68410W        W21306  35.625  21.088   3.174
68411W        W21307  22.424   9.272   1.153
68412W        W21308  10.768   5.571   1.966
68413W        W21309  33.579  27.690   2.225
68414W        W21310  14.622  17.518   9.741
68415W        W21311  26.871  28.364   2.839
68416W        W21312  29.323  23.187   0.871
68417W        W21313  16.228  29.341   0.396
68418W        W21314  13.470   1.699   8.945
68419W        W21315  11.349  24.732   1.414
68420W        W21316  20.320   5.954   0.830
68421W        W21317  22.528  33.879   3.534
68422W        W21318  32.399  28.566   2.672
68423W        W21319  23.065  23.384   2.723
68424W        W21320  15.854  34.671   2.520
68425W        W21321   2.210  34.566   8.780
68426W        W21322  31.372  20.754   9.109
68427W        W21323  31.604  22.229   0.082
68428W        W21324  33.774  19.522   2.368
68429W        W21325   4.152  33.716   0.056
68430W        W21326   7.359  16.898   0.189
68431W        W21327  16.224   7.968  10.242
68432W        W21328  13.295  32.335   8.915
68433W        W21329   1.257  20.995   7.883
68434W        W21330   7.973  34.909   2.435
68435W        W21331  12.290  15.567   8.011
68436W        W21332   1.582   0.914   8.804
68437W        W21333  25.261  29.788   9.211
68438W        W21334  10.475  20.376   0.228
68439W        W21335   4.643  23.646   0.061
68440W        W21336  31.787  12.352   1.559
68441W        W21337   4.274   0.645   7.926
68442W        W21338  28.235  24.938   1.997
68443W        W21339   1.893   8.155   9.616
68444W        W21340  16.187   0.365   1.368
68445W        W21341  10.486  12.500   9.186
68446W        W21342  15.039  15.988   8.286
68447W        W21343   3.274   6.786   3.042
68448W        W21344   6.281  34.188   8.377
68449W        W21345  33.249  20.746  10.015
68450W        W21346   7.197   1.246   9.726
68451W        W21347   3.753  24.094   9.272
68452W        W21348  24.178   7.359   8.886
68453W        W21349  28.142  22.410   9.049
68454W        W21350   3.450  11.489   8.274
68455W        W21351  12.297  12.901   2.812
68456W        W21352  10.073  30.652   9.662
68457W        W21353   4.351   6.598   8.629
68458W        W21354  16.676  29.425   0.127
68459W        W21355  33.290  10.298   2.190
68460W        W21356  34.321   8.239   1.942
68461W        W21357  21.959   2.879   0.892
68462W        W21358  33.422  14.261   0.990
68463W        W21359  14.568   1.599  10.251
68464W        W21360  19.309  33.261   2.309
68465W        W21361  32.188  29.179   1.434
68466W        W21362  25.052   5.666   8.902
68467W        W21363  32.646  33.523   2.993
68468W        W21364  28.312  31.278   8.370
68469W        W21365  23.823   1.204   1.485
68470W        W21366   9.425   3.702   9.559
68471W        W21367  18.559   0.773   2.023
68472W        W21368  13.789  35.214   1.231
68473W        W21369   0.153  28.725   0.286
68474W        W21370  19.811   1.828   0.811
68475W        W21371   0.741   9.430   0.135
68476W        W21372   1.501  17.936   7.686
68477W        W21373   1.174  23.373   2.777
68478W        W21374  19.566  12.915   3.141
68479W        W21375  22.527   7.874   9.195
68480W        W21376  13.408  34.773   2.442
68481W        W21377  20.300  16.922   0.640
68482W        W21378  20.900  19.891   9.261
68483W        W21379   0.090   8.094  10.206
68484W        W21380  12.274  35.822   0.176
68485W        W21381  34.424   8.062   0.053
68486W        W21382  32.939  29.125  10.047
68487W        W21383  15.633   2.602   0.925
68488W        W21384  35.472  20.267   0.229
68489W        W21385  17.317  17.685   8.984
68490W        W21386  33.661  31.069   8.841
68491W        W21387   5.011  23.769   2.593
68492W        W21388   5.875   1.012   8.006
68493W        W21389  26.659  35.985   7.349
68494W        W21390  14.721  27.687   7.782
68495W        W21391  11.606   5.149   9.190
68496W        W21392   1.604  15.725   2.424
68497W        W21393   7.487  24.947   2.501
68498W        W21394  30.050  27.254   2.353
68499W        W21395  35.117  30.230   9.403
68500W        W21396  26.818  28.210   9.928
68501W        W21397  20.726   5.422   7.978
68502W        W21398  11.488  30.009   8.282
68503W        W21399  23.610  34.822   9.874
68504W        W21400  27.799  33.218  10.223
68505W        W21401   7.423  14.011   2.555
68506W        W21402  23.327  18.599   2.757
68507W        W21403  14.318  35.364   1.787
68508W        W21404   6.904  32.955   1.205
68509W        W21405  34.281  17.528  10.246
68510W        W21406  24.226   2.343   7.772
68511W        W21407  10.041   7.068   1.294
68512W        W21408  28.779  18.646   2.255
68513W        W21409  30.341  25.259   1.319
68514W        W21410   9.587  12.331   6.866
68515W        W21411  35.288   4.670   0.751
68516W        W21412   2.045  31.601   8.241
68517W        W21413  21.128  17.219   9.400
68518W        W21414  22.778   2.101   8.530
68519W        W21415  32.391   2.419   2.792
68520W        W21416  10.206  26.109   1.978
68521W        W21417   7.652  24.950   8.518
68522W        W21418  24.907  18.191   8.160
68523W        W21419  32.052  32.987   1.803
68524W        W21420  35.370  31.428   7.588
68525W        W21421   9.119   5.165   9.227
68526W        W21422   2.544  30.205   7.355
68527W        W21423  14.891   5.970   2.241
68528W        W21424  29.679   0.858   0.650
68529W        W21425   1.697  34.777   8.952
68530W        W21426  30.569   9.018   1.792
68531W        W21427  15.393  19.211   1.835
68532W        W21428  18.531   5.954   8.664
68533W        W21429  25.282  35.086   2.673
68534W        W21430   4.643   8.057   8.396
68535W        W21431   9.404  12.587   9.965
68536W        W21432  20.154  18.520   1.233
68537W        W21433  29.467   6.854   0.892
68538W        W21434  25.383   8.342   8.871
68539W        W21435  30.398   0.381   2.951
68540W        W21436  22.085  15.057   1.993
68541W        W21437  31.588  20.513   0.299
68542W        W21438  26.747  20.414   8.560
68543W        W21439  14.829  17.618   0.930
68544W        W21440  22.718  19.141   1.928
68545W        W21441  28.354   2.643   9.275
68546W        W21442  19.576  19.277   9.634
68547W        W21443  25.048  35.979   3.147
68548W        W21444   1.541  33.935   7.372
68549W        W21445  32.562  13.982   1.669
68550W        W21446   2.711  17.535   0.754
68551W        W21447  27.384  35.616   0.599
68552W        W21448   9.990   2.766   0.389
68553W        W21449   8.780   7.100   0.433
68554W        W21450  17.680  20.153  10.226
68555W        W21451   5.181  14.338   9.724
68556W        W21452  27.560  24.029  10.023
68557W        W21453  20.685  30.593   8.102
68558W        W21454  22.527  20.881   2.455
68559W        W21455  26.608  19.685   0.458
68560W        W21456  11.736   7.136   7.749
68561W        W21457  26.305  27.947   7.475
68562W        W21458  33.931   1.032   8.240
68563W        W21459  33.123   4.984   1.440
68564W        W21460  10.801   2.878   3.118
68565W        W21461  14.864   5.808   0.807
68566W        W21462  16.856  10.084  10.206
68567W        W21463  28.096   4.654   1.102
68568W        W21464  16.273   9.647   1.164
68569W        W21465  10.425  35.056   7.669
68570W        W21466  32.832   8.303   1.631
68571W        W21467  32.536  30.205   2.238
68572W        W21468   3.307  16.592   2.521
68573W        W21469  25.607  16.858   3.293
68574W        W21470  22.823  19.150   0.711
68575W        W21471   5.221  35.435   0.695
68576W        W21472  14.245  11.517   1.353
68577W        W21473  17.044  11.606   1.773
68578W        W21474  23.494   1.931   8.989
68579W        W21475  20.222  18.559  10.326
68580W        W21476   1.119  24.331   0.261
68581W        W21477   6.966  11.187   8.428
68582W        W21478   6.835  32.862   7.697
68583W        W21479  13.041  10.822   3.243
68584W        W21480  19.495   1.708   9.213
68585W        W21481  16.528   9.724   2.787
68586W        W21482  28.924   2.745   8.529
68587W        W21483  22.853  34.597   0.922
68588W        W21484   3.492  17.205   1.814
68589W        W21485   8.342  22.125   9.473
68590W        W21486   8.537  23.953   1.524
68591W        W21487  35.331   0.882   0.758
68592W        W21488  29.269  35.940   7.933
68593W        W21489   6.333  14.969   8.426
68594W        W21490  27.202  29.813   1.935
68595W        W21491  13.774  34.384   7.292
68596W        W21492  18.684  22.543   7.389
68597W        W21493  29.578   7.047   9.866
68598W        W21494   9.570   7.204   7.875
68599W        W21495  21.137  29.142   0.274
68600W        W21496  25.923  25.334   7.878
68601W        W21497  20.341   2.410   8.989
68602W        W21498   5.433  21.786  10.255
68603W        W21499  33.533  18.648   0.091
68604W        W21500   0.043  16.922   1.378
68605W        W21501   2.726  26.363   3.243
68606W        W21502   1.639  21.941   9.709
68607W        W21503  31.940  22.127   8.590
68608W        W21504  21.517  17.368   8.100
68609W        W21505   0.569  13.159   2.215
68610W        W21506  23.775  21.898   3.308
68611W        W21507  22.519  30.049   7.237
68612W        W21508   1.967  11.945   3.531
68613W        W21509  10.763   2.151   0.195
68614W        W21510  12.038  32.926   9.897
68615W        W21511   5.155  24.963   8.032
68616W        W21512  15.481  30.016   9.951
68617W        W21513  35.941   1.726   2.151
68618W        W21514  27.068   1.144   9.868
68619W        W21515  34.749  35.007   2.354
68620W        W21516  17.642  15.154   0.159
68621W        W21517  32.948   4.431   8.589
68622W        W21518  31.066  33.925   8.585
68623W        W21519  35.226  10.661   8.773
68624W        W21520  25.331  12.942   9.879
68625W        W21521   7.117  29.817   1.009
68626W        W21522  30.350  32.903   7.939
68627W        W21523  28.468   8.629   0.616
68628W        W21524  17.162   9.679   9.789
68629W        W21525  28.546  26.171   9.089
68630W        W21526   8.861   5.055   9.741
68631W        W21527   8.744  22.233   7.923
68632W        W21528   0.269   3.781   3.771
68633W        W21529  13.327  23.089   0.325
68634W        W21530   3.139  12.012   1.065
68635W        W21531   0.687  26.051   1.312
68636W        W21532  19.797  14.303   1.786
68637W        W21533  26.477  23.004   8.206
68638W        W21534  17.386  34.453   7.240
68639W        W21535  30.654  33.334   9.268
68640W        W21536  21.970  32.911   2.145
68641W        W21537   1.307  20.272   1.596
68642W        W21538  31.740  27.737   8.734
68643W        W21539  19.376  35.930   8.891
68644W        W21540  28.371  25.242   7.591
68645W        W21541  19.660  10.548   9.021
68646W        W21542  26.430  29.600   7.704
68647W        W21543  35.529  17.446   8.639
68648W        W21544  17.708  29.777   3.038
68649W        W21545  14.275  34.811   3.369
68650W        W21546  27.674  22.741   9.900
68651W        W21547   7.663  34.209   7.632
68652W        W21548  24.075  23.753   9.417
68653W        W21549  26.565   8.094   2.565
68654W        W21550   5.768  23.567  10.098
68655W        W21551  26.856  28.609   2.199
68656W        W21552   6.183  28.438   8.029
68657W        W21553  28.310  20.713   7.889
68658W        W21554  30.458  13.590   1.842
68659W        W21555   3.277  20.620  10.072
68660W        W21556  15.393   3.851   1.232
68661W        W21557  25.061  16.083   9.665
68662W        W21558  29.177  16.250   8.732
68663W        W21559  29.288  24.111   0.783
68664W        W21560  27.569  18.869   8.697
68665W        W21561   5.214  29.601   2.258
68666W        W21562  30.117  30.306   1.864
68667W        W21563  25.464  10.945   0.598
68668W        W21564  25.190  33.863   2.068
68669W        W21565  20.257  28.285   9.931
68670W        W21566   2.386   8.759   8.988
68671W        W21567  33.859   4.800  10.040
68672W        W21568   8.666   4.113   1.547
68673W        W21569   5.799   8.646   0.361
68674W        W21570   6.798  34.570   7.582
68675W        W21571  29.926   6.911   0.260
68676W        W21572  16.591   7.563   8.865
68677W        W21573   8.778  22.861   2.946
68678W        W21574   1.361  16.374   3.480
68679W        W21575  27.070  28.589  10.187
68680W        W21576   2.221   9.336   2.095
68681W        W21577  30.393  11.244   8.013
68682W        W21578  16.726  26.533   1.784
68683W        W21579  29.680  27.044   0.931
68684W        W21580  15.878  28.171   8.482
68685W        W21581  31.345  29.849   3.047
68686W        W21582  23.345  15.894   1.045
68687W        W21583   5.322   0.172   8.222
68688W        W21584  11.091   9.063   1.809
68689W        W21585  27.669  16.309   0.383
68690W        W21586  16.592  10.833   1.258
68691W        W21587   8.441   3.465   0.118
68692W        W21588  19.818   7.167   8.158
68693W        W21589  22.630   0.264   9.193
68694W        W21590  31.996   6.705   0.504
68695W        W21591  18.046  35.419   1.680
68696W        W21592   1.880  21.501   9.498
68697W        W21593   8.869  22.648   8.198
68698W        W21594   9.227  22.700   2.844
68699W        W21595  14.587  14.872   2.102
68700W        W21596  29.018   7.913   9.632
68701W        W21597   1.302  29.111   0.941
68702W        W21598   9.131  35.776   0.201
68703W        W21599   9.439   6.663   8.771
68704W        W21600   7.194  30.031   8.886
68705W        W21601   1.307   1.066   0.532
68706W        W21602  22.168   7.790   3.157
68707W        W21603  12.671  26.727   2.802
68708W        W21604  19.784   6.266   8.689
68709W        W21605  19.461  33.070   2.752
68710W        W21606  20.734  30.504   0.331
68711W        W21607  23.754  25.039   9.982
68712W        W21608  13.191   1.774   3.542
68713W        W21609  25.960  31.669   0.709
68714W        W21610  17.431  10.879   8.025
68715W        W21611  13.992   8.974   0.184
68716W        W21612   5.867   9.292   8.457
68717W        W21613  24.265  32.783   2.099
68718W        W21614  23.726  32.413   8.224
68719W        W21615   9.565   9.425   9.637
68720W        W21616  30.958  18.478   1.314
68721W        W21617  27.364  22.559   3.006
68722W        W21618  35.239  33.906   2.418
68723W        W21619   6.839   4.427   2.933
68724W        W21620  21.076  19.095   0.547
68725W        W21621   0.840   1.419   2.533
68726W        W21622   7.593  12.552   1.855
68727W        W21623  33.247  31.091   9.105
68728W        W21624  23.891  33.333   9.719
68729W        W21625  12.879   8.159   8.463
68730W        W21626   3.403  20.172  10.145
68731W        W21627  32.980  25.055   1.297
68732W        W21628  17.088   2.439   0.976
68733W        W21629  25.606   2.159   1.197
68734W        W21630   9.159  34.522   1.655
68735W        W21631  14.428  17.975   8.059
68736W        W21632  11.755  13.511   0.240
68737W        W21633   8.103  11.365   2.097
68738W        W21634   4.297  19.456  10.021
68739W        W21635   1.981  20.193   9.324
68740W        W21636  31.129   7.458   2.944
68741W        W21637  15.279  18.767  10.321
68742W        W21638  26.728  32.392   8.128
68743W        W21639  16.411  20.388   8.942
68744W        W21640  32.042  20.747   0.209
68745W        W21641   7.655  34.265   1.327
68746W        W21642   9.182   6.537   2.319
68747W        W21643   9.738  26.586   3.211
68748W        W21644  25.705  33.572   3.418
68749W        W21645   8.229   3.414   8.319
68750W        W21646   1.386   4.380   1.498
68751W        W21647  34.192  13.903   0.095
68752W        W21648  29.112  21.880   7.866
68753W        W21649   9.243  28.247   8.834
68754W        W21650  15.218  34.672   0.107
68755W        W21651  28.683  19.725   1.418
68756W        W21652  35.213   0.225   0.961
68757W        W21653  28.542  23.984   0.699
68758W        W21654   9.738   1.322   1.643
68759W        W21655  12.870  16.729   1.307
68760W        W21656  23.640  18.277   2.921
68761W        W21657  33.406  13.799   7.370
68762W        W21658  18.426  33.650   3.452
68763W        W21659  34.341   1.879  10.040
68764W        W21660   2.706  17.470   8.136
68765W        W21661  19.529  25.270   2.940
68766W        W21662  30.177  13.144   9.874
68767W        W21663  12.139  33.962   7.545
68768W        W21664  11.855  29.655   7.264
68769W        W21665  26.414  32.920   1.365
68770W        W21666  29.119  25.270   0.818
68771W        W21667   9.867  33.807   7.995
68772W        W21668   7.363  12.606   3.382
68773W        W21669  27.418  30.981   0.352
68774W        W21670  35.214  25.875  10.307
68775W        W21671   3.261  28.461   1.755
68776W        W21672  27.897  20.375   1.326
68777W        W21673   3.894  21.732   2.943
68778W        W21674  33.620  16.026   2.363
68779W        W21675  23.628  34.265   9.961
68780W        W21676  26.220  35.291   9.589
68781W        W21677  12.591   5.161   8.753
68782W        W21678  24.734  15.278   0.090
68783W        W21679   6.860  22.594   2.789
68784W        W21680  29.753   3.965   3.496
68785W        W21681  16.067  24.984   2.636
68786W        W21682  29.373  14.339   0.271
68787W        W21683  26.337  28.424   0.654
68788W        W21684  33.394  28.565   3.761
68789W        W21685  12.742   3.009   2.739
68790W        W21686  30.744  11.155   3.846
68791W        W21687   1.289  27.467   0.095
68792W        W21688  12.663  23.092   9.667
68793W        W21689  17.955  27.419   9.202
68794W        W21690   1.757  11.841   4.002
68795W        W21691  28.723  19.843   9.986
68796W        W21692  28.733  29.388   2.063
68797W        W21693  35.279   5.128   1.103
68798W        W21694  12.918  14.119   0.790
68799W        W21695  20.475  25.907   3.219
68800W        W21696  19.692  17.161   1.806
68801W        W21697  15.211  13.794   1.997
68802W        W21698  20.684  25.913   1.109
68803W        W21699   8.094  14.276   0.442
68804W        W21700  19.835  34.929   0.329
68805W        W21701  25.521   0.259   3.191
68806W        W21702   2.137  20.596   9.057
68807W        W21703  12.672   9.457   7.846
68808W        W21704  10.854   0.533   9.279
68809W        W21705  13.322  10.114   1.626
68810W        W21706  10.620  17.000   8.932
68811W        W21707   7.510   9.928   8.436
68812W        W21708  28.086  30.975   7.099
68813W        W21709   9.228  11.055   1.981
68814W        W21710   2.248  13.354   8.075
68815W        W21711  34.350  31.387   0.452
68816W        W21712  30.604  13.055  10.089
68817W        W21713  20.124  11.638   3.353
68818W        W21714  34.998  11.563   1.521
68819W        W21715  28.733  34.447   2.083
68820W        W21716   0.136  30.647   1.646
68821W        W21717   3.853  24.048   1.022
68822W        W21718   4.495  15.239   9.526
68823W        W21719   7.579   3.611   9.563
68824W        W21720  25.667  35.832   0.695
68825W        W21721  22.634  32.949  10.251
68826W        W21722  28.385  20.540   2.024
68827W        W21723  19.102  22.383   9.778
68828W        W21724  35.390   8.536   2.125
68829W        W21725  31.044   2.896   8.092
68830W        W21726  11.032  22.527   2.956
68831W        W21727  29.432  20.632   8.225
68832W        W21728  14.904  17.196   9.412
68833W        W21729  20.624  19.848   8.856
68834W        W21730   8.624   7.172   7.823
68835W        W21731  32.582   8.084   2.326
68836W        W21732  15.499   3.626   3.066
68837W        W21733  21.479  11.929   9.804
68838W        W21734   4.078  15.525   9.474
68839W        W21735  22.659  35.332   0.514
68840W        W21736  16.961  12.181   1.251
68841W        W21737   6.723   7.571  10.284
68842W        W21738  17.223  24.340   8.367
68843W        W21739  19.223  14.349   1.427
68844W        W21740  29.436  24.465   2.025
68845W        W21741  35.803   8.582   2.360
68846W        W21742  23.346  11.908   3.101
68847W        W21743  29.248  11.376   9.665
68848W        W21744   3.651   5.613   3.755
68849W        W21745  19.062  30.606   9.749
68850W        W21746  29.257  20.323   1.548
68851W        W21747  16.965  35.476   7.566
68852W        W21748   9.836  22.052   9.285
68853W        W21749  27.763  13.550   1.970
68854W        W21750   5.437   9.087   8.077
68855W        W21751  20.513  14.971   1.457
68856W        W21752  32.821  26.961   8.275
68857W        W21753  24.065  14.694   1.631
68858W        W21754  31.299  22.444   2.223
68859W        W21755  31.375  34.786   9.029
68860W        W21756  28.530  27.268   1.853
68861W        W21757  22.336  15.782   1.186
68862W        W21758  34.242   1.741   1.920
68863W        W21759  31.033   8.075   2.114
68864W        W21760   9.623  16.524   8.688
68865W        W21761  34.955   4.206   9.804
68866W        W21762  34.798   3.271   8.791
68867W        W21763  22.746   5.723   1.472
68868W        W21764  23.632  33.092   8.092
68869W        W21765  25.414   3.975   2.899
68870W        W21766  27.621  14.529   2.168
68871W        W21767  35.378  31.074   8.480
68872W        W21768  15.239  15.085  10.151
68873W        W21769  26.276  16.752   1.455
68874W        W21770  11.982   0.632   2.191
68875W        W21771   9.027  23.411   2.107
68876W        W21772  24.062  25.428   0.373
68877W        W21773  18.063   2.390   0.566
68878W        W21774  23.428  28.640   1.963
68879W        W21775  35.078  14.942   2.027
68880W        W21776  13.481   8.046   7.717
68881W        W21777  31.669  26.110  10.291
68882W        W21778   3.026  21.727   2.805
68883W        W21779   1.395   9.969   3.267
68884W        W21780  13.594   2.804   7.817
68885W        W21781  31.196  21.819   3.297
68886W        W21782   4.667  10.914   2.604
68887W        W21783  28.189  25.728   9.131
68888W        W21784  11.118  19.069   8.553
68889W        W21785  18.263  15.162   8.050
68890W        W21786  14.358  34.951   2.711
68891W        W21787  19.965   6.163   1.315
68892W        W21788  33.852  14.434   2.619
68893W        W21789  31.415  23.306   2.194
68894W        W21790  22.860  23.098   7.779
68895W        W21791   0.866   2.007   7.209
68896W        W21792  17.321  28.809  10.118
68897W        W21793   4.461  17.783   2.972
68898W        W21794  29.388   7.493  10.022
68899W        W21795  15.902  34.224   0.686
68900W        W21796  23.952  24.062   1.092
68901W        W21797  28.428  22.899   0.412
68902W        W21798  14.812   0.460   8.302
68903W        W21799  28.402  21.773   7.454
68904W        W21800   2.306  35.575   7.600
68905W        W21801  11.904   0.573   8.016
68906W        W21802  15.838   1.895   8.272
68907W        W21803   5.839   2.127   1.183
68908W        W21804  33.016  33.772   0.018
68909W        W21805  11.667   9.720   7.700
68910W        W21806   0.669  28.532   8.976
68911W        W21807  22.235  26.009   1.656
68912W        W21808   5.526   7.379   2.631
68913W        W21809  17.584  19.812   9.462
68914W        W21810   1.256   1.232   2.475
68915W        W21811   3.399  34.161   1.265
68916W        W21812  32.069  13.902   9.253
68917W        W21813  16.334  30.423   1.477
68918W        W21814  24.231  34.288   3.387
68919W        W21815  13.249  19.390   7.549
68920W        W21816  31.129  30.105   9.628
68921W        W21817  30.942  25.385   7.978
68922W        W21818  20.361  16.991   9.631
68923W        W21819  27.068   2.966   0.728
68924W        W21820  31.834   5.756   0.125
68925W        W21821  26.607   1.612   0.737
68926W        W21822   3.420  25.081   1.310
68927W        W21823   3.913  32.843   3.461
68928W        W21824  11.013  22.177   7.963
68929W        W21825  22.911   2.174   9.933
68930W        W21826   7.152  30.137   7.626
68931W        W21827  23.645   3.868   8.535
68932W        W21828   4.167  30.160   1.029
68933W        W21829  30.717  11.553   9.836
68934W        W21830   7.232  19.242  10.038
68935W        W21831   2.254  17.674   8.906
68936W        W21832  18.171  20.176   9.014
68937W        W21833   8.884   4.161   7.215
68938W        W21834   7.923  19.646  10.313
68939W        W21835   2.707  29.080   9.189
68940W        W21836  24.207  19.217   1.409
68941W        W21837  34.361   5.703  10.119
68942W        W21838  33.486  19.686   8.602
68943W        W21839   2.270  24.210   3.396
68944W        W21840  22.540  28.383   3.530
68945W        W21841  22.738  26.704  10.131
68946W        W21842   4.149  16.582   9.943
68947W        W21843  24.673  21.386   9.486
68948W        W21844  35.294   8.280   9.307
68949W        W21845   7.111  32.411   2.817
68950W        W21846  13.131  33.510   2.490
68951W        W21847   3.441   4.194   1.904
68952W        W21848  30.524  18.726   9.849
68953W        W21849   1.312  34.306   0.149
68954W        W21850  23.996  26.678   1.708
68955W        W21851   8.752  19.679   7.751
68956W        W21852  16.992  17.151   7.524
68957W        W21853  23.139  27.949   7.345
68958W        W21854  13.572   0.841   8.383
68959W        W21855  10.244  23.054   7.537
68960W        W21856  14.287   3.508   9.504
68961W        W21857   2.451  19.230   8.840
68962W        W21858  28.599  26.028   9.615
68963W        W21859  24.154   6.772  10.246
68964W        W21860  12.938   6.229   9.480
68965W        W21861   5.057  31.600   2.439
68966W        W21862   6.995  29.594   8.722
68967W        W21863   6.721   6.484   7.961
68968W        W21864  32.314  30.700   9.047
68969W        W21865   5.160  30.639   2.067
68970W        W21866  34.266  20.984   9.189
68971W        W21867  24.287   8.832   9.371
68972W        W21868   0.372  31.040   3.264
68973W        W21869  26.651  23.954   7.682
68974W        W21870  16.180   3.673   8.042
68975W        W21871  19.607   0.401   2.151
68976W        W21872   0.737  35.894   0.244
68977W        W21873   1.380  16.779   1.349
68978W        W21874  30.492  26.401   0.630
68979W        W21875  10.107   5.514   0.731
68980W        W21876   7.567  35.646   8.173
68981W        W21877   6.732  29.836   9.026
68982W        W21878  19.942   7.520   1.919
68983W        W21879  22.404  35.184   8.475
68984W        W21880  30.588  11.807   7.364
68985W        W21881  30.570  16.952   2.697
68986W        W21882   9.120   4.732   9.487
68987W        W21883   6.672   7.009   1.611
68988W        W21884  20.725  21.934   9.401
68989W        W21885  31.725  18.808   2.733
68990W        W21886  13.226  32.293   2.076
68991W        W21887  13.138   5.192   8.051
68992W        W21888  19.034  35.848   3.406
68993W        W21889   2.300  35.161   7.880
68994W        W21890  18.201   4.597   2.043
68995W        W21891  25.257   7.459   9.115
68996W        W21892   2.211  22.508   1.252
68997W        W21893  12.191  28.182   1.552
68998W        W21894  25.992  12.811   0.596
68999W        W21895  11.403  28.930   0.566
69000W        W21896  11.694  14.457   0.727
69001W        W21897   7.626  34.058   8.686
69002W        W21898   5.418   6.673   1.152
69003W        W21899   8.971   2.290   9.577
69004W        W21900  22.943   9.272   2.713
69005W        W21901  19.999  21.601   1.720
69006W        W21902  20.217  33.698   2.460
69007W        W21903  29.501  29.046   0.383
69008W        W21904  30.781  27.856   2.212
69009W        W21905  29.093  16.443   9.989
69010W        W21906  24.830  18.608   3.139
69011W        W21907   4.839  11.548   9.000
69012W        W21908   5.280  20.093   9.474
69013W        W21909  35.778  21.603   9.978
69014W        W21910   6.875   7.691   9.825
69015W        W21911  29.763  34.183   2.048
69016W        W21912  35.248  13.973   8.232
69017W        W21913  24.235  14.441   2.423
69018W        W21914  23.961  21.954   8.155
69019W        W21915  11.708  28.586   8.287
69020W        W21916  16.305   7.614   1.873
69021W        W21917  16.182   0.717   0.371
69022W        W21918   6.000  15.005   1.637
69023W        W21919  18.799  13.584   2.267
69024W        W21920  27.782  30.160   0.068
69025W        W21921  16.925  26.495  10.040
69026W        W21922  21.085  18.011   2.263
69027W        W21923   5.756   1.498   9.956
69028W        W21924   1.141   8.220   1.007
69029W        W21925  25.538  34.865   0.331
69030W        W21926  34.746  21.050   3.490
69031W        W21927   4.651  29.980   1.671
69032W        W21928  24.365  14.282   8.186
69033W        W21929   8.298  28.747   9.601
69034W        W21930  17.707   6.994   9.071
69035W        W21931  28.876  25.226   2.291
69036W        W21932  33.409   4.535   7.803
69037W        W21933  35.206  32.367   8.497
69038W        W21934   7.653  33.782   8.079
69039W        W21935  26.485  34.755   8.145
69040W        W21936  25.722  31.595   7.825
69041W        W21937  13.636  24.235   9.100
69042W        W21938  24.491  13.283  10.257
69043W        W21939  32.132   9.620   8.877
69044W        W21940  17.712   1.148   8.012
69045W        W21941  13.874   6.665   3.153
69046W        W21942  17.277  14.660   1.796
69047W        W21943  22.663   9.010   3.004
69048W        W21944   3.171  11.627  10.319
69049W        W21945  22.111  30.613   2.299
69050W        W21946  26.997   1.896  10.085
69051W        W21947  24.355  27.833   3.229
69052W        W21948  22.101  31.945   7.926
69053W        W21949  25.612  18.764   8.260
69054W        W21950  23.269  25.112  10.056
69055W        W21951  30.756  17.318   7.225
69056W        W21952   6.987  26.299   7.816
69057W        W21953   6.956  31.863   7.864
69058W        W21954  17.945  11.041   2.803
69059W        W21955  21.456  33.181   7.700
69060W        W21956  34.512  10.006  10.294
69061W        W21957  35.822  24.516   7.886
69062W        W21958  32.377   9.559   0.420
69063W        W21959  21.955  30.143   8.051
69064W        W21960  24.546  18.137   8.536
69065W        W21961  14.801   3.510   8.775
69066W        W21962   4.414   9.706   8.740
69067W        W21963  10.441  15.101   1.619
69068W        W21964   7.320  30.350   0.983
69069W        W21965  20.943  23.546   8.560
69070W        W21966  24.035   6.128   1.145
69071W        W21967  21.063  24.665   8.703
69072W        W21968  20.948  16.860  10.297
69073W        W21969  17.424   7.426   3.798
69074W        W21970  28.013   8.644   2.041
69075W        W21971  32.306  30.919   0.801
69076W        W21972  31.259   5.400   0.915
69077W        W21973   3.398  17.456   9.566
69078W        W21974  30.899   5.313   2.528
69079W        W21975  19.660  24.133   9.599
69080W        W21976  23.798  23.517   9.024
69081W        W21977   6.806  33.051  10.013
69082W        W21978  23.124   2.792   7.881
69083W        W21979  17.542   2.249   3.350
69084W        W21980  16.696  33.543   1.099
69085W        W21981  20.136  30.960  10.094
69086W        W21982  35.593  19.153   0.743
69087W        W21983  12.983  23.726   2.231
69088W        W21984  28.600  20.195   3.129
69089W        W21985  30.583   3.344   0.819
69090W        W21986  18.859   3.020   8.098
69091W        W21987  12.300  17.915   9.578
69092W        W21988  28.295   6.333   1.990
69093W        W21989  33.863  12.513   1.817
69094W        W21990   1.763  32.329   0.923
69095W        W21991  13.034   3.251   1.116
69096W        W21992  15.788  10.995   0.531
69097W        W21993  27.311  21.644   8.107
69098W        W21994  33.349  18.619   1.065
69099W        W21995  35.272  29.844  10.099
69100W        W21996  15.659   1.703   1.029
69101W        W21997   6.616  29.395   9.252
69102W        W21998   0.002  24.970   1.080
69103W        W21999   8.110  27.422   6.887
69104W        W22000  21.501   5.839   8.195
69105W        W22001   4.928  31.127  10.007
69106W        W22002  29.912  25.259   0.523
69107W        W22003  17.875  21.697   3.477
69108W        W22004   9.961  35.301   7.410
69109W        W22005  27.926  33.537   2.494
69110W        W22006   9.186   4.282   8.597
69111W        W22007  18.395   9.745   8.457
69112W        W22008  23.291  29.649   8.465
69113W        W22009  21.396   8.481   9.613
69114W        W22010  15.736   6.452   2.360
69115W        W22011   6.694  21.667   9.849
69116W        W22012   4.601  31.676   1.227
69117W        W22013   8.954  24.121   6.827
69118W        W22014  18.715  11.871   9.177
69119W        W22015  13.861  32.822  10.078
69120W        W22016  25.512  32.594   1.432
69121W        W22017  36.007  32.691   2.644
69122W        W22018  14.178  13.666   8.267
69123W        W22019  29.699  28.882   3.177
69124W        W22020   6.587  20.136   8.326
69125W        W22021  34.398  11.989   0.294
69126W        W22022  10.088   7.111   7.158
69127W        W22023   3.509  23.054   3.106
69128W        W22024  16.822   5.318   9.621
69129W        W22025  13.651  34.312   8.898
69130W        W22026  16.585   6.400  10.286
69131W        W22027  10.386  12.437   0.360
69132W        W22028   2.538  21.623   0.904
69133W        W22029  20.761   4.475   0.353
69134W        W22030  25.689  25.534   1.934
69135W        W22031  33.492  25.589   2.300
69136W        W22032  12.210   3.560   2.577
69137W        W22033  17.398  24.439   8.855
69138W        W22034  32.904  20.290   2.178
69139W        W22035  16.289  21.121   9.683
69140W        W22036   9.797  16.828   8.307
69141W        W22037  14.865  12.864  10.207
69142W        W22038  26.752  34.357   9.329
69143W        W22039  17.298  33.658   2.153
69144W        W22040  14.372  30.048   8.090
69145W        W22041   1.950  21.130   8.392
69146W        W22042  17.740  21.862   1.585
69147W        W22043   0.563  30.358   0.137
69148W        W22044   4.934  16.361   2.147
69149W        W22045  17.913  12.286   8.271
69150W        W22046  21.219   4.696   3.457
69151W        W22047  31.412   0.634   0.138
69152W        W22048  24.676  20.227   3.575
69153W        W22049  29.155  33.855   0.230
69154W        W22050  25.241  34.352   1.993
69155W        W22051  24.950  26.907   8.130
69156W        W22052   3.872  23.400   3.238
69157W        W22053  10.751  32.232  10.075
69158W        W22054  31.695  21.725   3.153
69159W        W22055  12.480  14.566   0.806
69160W        W22056  27.966  22.891   0.677
69161W        W22057  24.355  24.777   8.718
69162W        W22058  15.487  19.208   1.323
69163W        W22059  29.358  26.795   7.737
69164W        W22060  15.700  15.941   8.430
69165W        W22061  32.066   9.079   2.984
69166W        W22062   1.002   0.053   6.966
69167W        W22063  27.680  23.162   8.700
69168W        W22064  22.773  23.700   2.399
69169W        W22065   4.510  10.463   9.806
69170W        W22066  12.765  11.871   0.603
69171W        W22067  12.710   5.603   8.928
69172W        W22068   4.855  24.303   1.763
69173W        W22069  20.612  21.450   2.758
69174W        W22070  17.579  26.404   2.072
69175W        W22071  34.542  31.589   9.396
69176W        W22072  15.842  14.609   2.423
69177W        W22073   2.444  25.722   1.371
69178W        W22074  13.752  10.287   0.400
69179W        W22075  22.723  13.447   3.346
69180W        W22076  26.059  30.840   1.713
69181W        W22077  11.451  10.998   1.751
69182W        W22078   5.741   1.164   9.557
69183W        W22079   2.280   2.973   3.094
69184W        W22080   4.930  33.295   0.631
69185W        W22081  31.725  11.758   3.849
69186W        W22082   8.170   7.530  10.257
69187W        W22083  30.406   4.414  10.184
69188W        W22084  18.648  34.172   1.341
69189W        W22085  21.167  16.319   2.582
69190W        W22086  34.891   6.056   1.723
69191W        W22087   5.383   2.380   0.444
69192W        W22088  18.102  18.118   9.415
69193W        W22089   4.646  27.298   1.991
69194W        W22090  35.233   6.577   8.411
69195W        W22091   0.912  14.879   0.092
69196W        W22092  14.502  30.287   7.362
69197W        W22093  27.471   0.633   7.635
69198W        W22094   3.815  11.112   4.091
69199W        W22095  25.520  26.711   7.436
69200W        W22096  11.278  28.883   0.074
69201W        W22097  31.853   8.281   1.620
69202W        W22098   8.611  16.047   2.948
69203W        W22099  14.805  24.298   8.540
69204W        W22100  10.137  17.764   2.774
69205W        W22101  29.157  26.760   1.493
69206W        W22102  26.552  13.282   8.506
69207W        W22103  32.151  19.029   3.176
69208W        W22104  19.288  31.060   1.656
69209W        W22105  10.282   9.522   9.436
69210W        W22106  21.080   7.225   7.890
69211W        W22107  15.415  23.269  10.153
69212W        W22108   1.861   1.486   1.708
69213W        W22109   7.441  18.680   8.595
69214W        W22110   0.369  29.865   0.221
69215W        W22111  27.745  32.792   1.437
69216W        W22112  25.170  15.985   3.163
69217W        W22113   1.578  35.547   9.471
69218W        W22114   8.257  21.083   7.863
69219W        W22115  30.360   4.435   2.952
69220W        W22116  13.428  35.695   9.320
69221W        W22117  26.921  26.822   8.639
69222W        W22118  13.739  32.574   1.786
69223W        W22119   2.223   3.844   2.706
69224W        W22120  22.599  10.290   0.182
69225W        W22121  18.766  17.524   2.901
69226W        W22122  33.479  13.613   0.305
69227W        W22123  29.522  35.453   7.105
69228W        W22124  35.640  27.193   2.181
69229W        W22125  14.203  19.248  10.207
69230W        W22126   8.218  27.666   8.200
69231W        W22127  28.697  16.625   7.940
69232W        W22128  32.805  25.576   8.713
69233W        W22129  31.142  13.775   9.027
69234W        W22130   7.045  29.377   2.085
69235W        W22131  21.802  22.190   3.078
69236W        W22132  33.443  26.042   2.501
69237W        W22133   3.162  31.345   0.232
69238W        W22134  35.585  24.357   0.832
69239W        W22135  15.330   8.139   1.139
69240W        W22136   5.798  17.954   8.924
69241W        W22137   4.435  31.574   2.092
69242W        W22138  21.978  12.542   7.829
69243W        W22139  30.294  17.760  10.050
69244W        W22140  23.038  10.791   7.173
69245W        W22141  21.620   1.559   9.430
69246W        W22142   8.797  10.081   0.623
69247W        W22143  17.461   7.380   8.798
69248W        W22144  22.252  25.786   8.765
69249W        W22145  23.269  24.539   7.919
69250W        W22146  21.624  30.526   8.300
69251W        W22147   6.106  19.558   8.715
69252W        W22148  10.152  21.541   3.046
69253W        W22149  22.628  26.497   7.572
69254W        W22150   1.753  26.732   0.017
69255W        W22151   4.170  20.910   9.659
69256W        W22152  20.118  35.936   2.743
69257W        W22153   8.501  18.656   0.215
69258W        W22154  35.602  31.154   9.812
69259W        W22155  15.727   4.854   1.128
69260W        W22156  25.679  22.284   0.069
69261W        W22157  23.607   7.359   8.190
69262W        W22158   5.793   2.123   9.162
69263W        W22159  11.882  13.062   9.075
69264W        W22160  14.139   4.290   2.776
69265W        W22161  21.155   7.525   1.334
69266W        W22162  23.354  34.585  10.259
69267W        W22163  10.643  16.996   7.361
69268W        W22164  22.748  31.778   9.168
69269W        W22165  22.683  16.202   9.276
69270W        W22166  24.428  35.046   2.774
69271W        W22167  23.623  30.478   2.131
69272W        W22168  10.637  18.129   1.592
69273W        W22169  17.169  16.888   0.142
69274W        W22170  23.045  14.969   0.426
69275W        W22171   2.081  27.634   9.246
69276W        W22172   8.139   1.788   7.206
69277W        W22173  13.572  35.176   9.313
69278W        W22174  14.650  15.736   2.698
69279W        W22175  13.214   6.756   0.403
69280W        W22176  27.423   8.303   3.058
69281W        W22177  23.221   6.275   7.674
69282W        W22178  24.128   0.736  10.148
69283W        W22179  15.903   8.524   2.769
69284W        W22180   2.935  33.388   9.056
69285W        W22181  17.014  16.373   0.119
69286W        W22182  26.230   5.073   1.687
69287W        W22183  33.399  24.029   3.053
69288W        W22184  32.075  14.589   0.558
69289W        W22185  33.889  21.419   2.001
69290W        W22186  16.021  10.036   0.973
69291W        W22187  34.986  32.267   3.674
69292W        W22188  32.316  19.072   8.494
69293W        W22189   8.009  19.250   1.359
69294W        W22190  30.088   6.690   8.134
69295W        W22191   0.895  31.055   0.509
69296W        W22192  35.667  21.829   8.504
69297W        W22193  32.400  27.030   2.273
69298W        W22194   2.657   8.010   9.353
69299W        W22195  25.267  15.646   0.886
69300W        W22196  25.417  30.532   2.949
69301W        W22197  31.532  19.633   0.488
69302W        W22198  14.029  31.467   8.940
69303W        W22199  29.793  35.538   2.604
69304W        W22200  14.095  13.592   0.031
69305W        W22201  26.058  12.515   8.669
69306W        W22202   4.563   7.248   0.013
69307W        W22203  30.079  12.145   9.159
69308W        W22204  34.030   7.067  10.204
69309W        W22205  22.807  32.271   8.403
69310W        W22206  13.932  19.863   9.530
69311W        W22207   3.801  20.639   1.545
69312W        W22208  24.971   3.329   2.910
69313W        W22209  33.811  27.218   2.175
69314W        W22210  16.753   1.917   8.443
69315W        W22211  30.313   6.395   8.580
69316W        W22212  31.677   3.979   1.994
69317W        W22213   2.526  18.682   2.594
69318W        W22214  27.989  23.817   9.892
69319W        W22215  21.070   3.540   9.825
69320W        W22216  32.017   8.127   9.320
69321W        W22217  33.366   9.418   0.273
69322W        W22218   7.343   4.976   8.751
69323W        W22219   1.816  34.226   8.911
69324W        W22220  27.751   4.549   2.656
69325W        W22221   7.948  12.203   7.720
69326W        W22222   1.399  33.381   9.678
69327W        W22223  33.287  22.443   0.849
69328W        W22224   7.324   4.160   1.243
69329W        W22225   6.401   7.438   8.547
69330W        W22226  30.889   2.048   1.765
69331W        W22227  31.115  19.783   9.239
69332W        W22228   1.299  15.204   3.793
69333W        W22229  29.401  26.305   9.206
69334W        W22230  16.280  28.183   0.560
69335W        W22231  29.642  12.941   7.361
69336W        W22232  25.432   0.639   0.644
69337W        W22233  12.502  18.129   0.248
69338W        W22234   4.338  21.215   8.589
69339W        W22235  34.472  19.614   0.464
69340W        W22236  12.254  32.810   8.599
69341W        W22237  19.606  12.496   1.995
69342W        W22238  10.343  28.615   8.469
69343W        W22239  17.548   1.286   0.957
69344W        W22240  10.699   2.024   1.051
69345W        W22241  11.388  30.453   7.012
69346W        W22242  10.038  18.744   9.060
69347W        W22243   4.332  28.267   2.703
69348W        W22244  17.749  12.778   0.349
69349W        W22245   7.447  16.647   9.122
69350W        W22246   5.118   4.415   7.731
69351W        W22247  35.364  25.293   8.632
69352W        W22248  18.647  17.376   9.879
69353W        W22249   4.011   5.827   1.032
69354W        W22250  23.917  28.916   1.457
69355W        W22251  29.155  23.677   8.447
69356W        W22252  17.104  28.584   0.926
69357W        W22253  28.940  32.190   0.954
69358W        W22254  21.512  27.322   8.695
69359W        W22255  35.094   4.455   1.708
69360W        W22256  35.160  10.600  10.120
69361W        W22257  25.921  14.732   0.076
69362W        W22258  26.045   4.212   0.699
69363W        W22259  23.986  17.225   2.809
69364W        W22260  25.880  30.182   9.895
69365W        W22261  34.025  12.258   2.991
69366W        W22262  24.272  26.141   0.169
69367W        W22263   2.387  17.427   2.884
69368W        W22264  33.959  23.555   0.542
69369W        W22265  30.179  19.666   0.950
69370W        W22266   0.384  12.241   9.046
69371W        W22267  30.937  17.156   0.602
69372W        W22268  12.353  23.314   9.294
69373W        W22269  22.621  13.727   2.392
69374W        W22270  26.963   7.682   9.941
69375W        W22271   1.986  19.290   9.610
69376W        W22272  29.977  32.390   0.348
69377W        W22273  30.142   8.806   8.579
69378W        W22274  30.053   5.223   1.839
69379W        W22275  24.276   0.320  10.040
69380W        W22276   9.287  24.652   1.376
69381W        W22277   5.267  30.694   8.288
69382W        W22278  19.419  19.639   3.634
69383W        W22279  12.781  24.700   7.476
69384W        W22280  32.575  12.836   1.292
69385W        W22281   1.439  31.382   7.255
69386W        W22282  21.687  31.937   8.215
69387W        W22283  28.869  16.391   2.549
69388W        W22284  23.493  13.373   1.765
69389W        W22285  21.691   4.155  10.282
69390W        W22286   1.277  15.114   2.875
69391W        W22287  11.728  13.960   1.447
69392W        W22288   8.894  25.833   9.734
69393W        W22289  12.669   3.807   1.714
69394W        W22290  11.660  11.425   0.642
69395W        W22291   3.830  32.941   9.382
69396W        W22292  30.784   0.883  10.112
69397W        W22293   1.745  20.963   7.868
69398W        W22294  34.695   3.436   9.269
69399W        W22295  34.678  29.626   0.447
69400W        W22296  33.645   0.165   3.514
69401W        W22297  22.052  34.088   0.599
69402W        W22298  35.525  16.281   1.614
69403W        W22299   3.274  29.546   1.863
69404W        W22300   7.206   8.550   9.371
69405W        W22301  25.762  12.582   2.741
69406W        W22302  29.682  12.375   3.273
69407W        W22303  14.207   5.588   2.469
69408W        W22304  12.251   4.896   3.504
69409W        W22305  18.494   2.851   9.945
69410W        W22306   5.043   8.828   8.788
69411W        W22307   6.372   9.443   9.960
69412W        W22308  33.531  31.459   3.215
69413W        W22309   8.084  28.344   1.123
69414W        W22310  35.291  28.854   7.785
69415W        W22311   5.827   8.480   0.807
69416W        W22312  20.790  18.002   9.008
69417W        W22313  29.941  13.726   0.513
69418W        W22314  13.385  23.892   9.957
69419W        W22315  17.959  12.500   9.805
69420W        W22316  11.275  22.932   9.115
69421W        W22317  26.142  35.411   7.654
69422W        W22318   1.660  21.754   3.069
69423W        W22319   2.699   0.617   8.737
69424W        W22320  13.788  14.015   1.882
69425W        W22321  23.065   4.721  10.300
69426W        W22322  17.464   2.930   8.858
69427W        W22323   7.183   9.679  10.258
69428W        W22324  11.734  16.729   8.504
69429W        W22325   3.032  31.053   1.920
69430W        W22326   2.976  20.026   3.514
69431W        W22327  33.071   6.646   7.364
69432W        W22328  22.854  23.951   0.980
69433W        W22329  20.568   0.024   1.313
69434W        W22330  30.701   2.535   1.536
69435W        W22331  22.475  12.557   8.597
69436W        W22332  11.754   1.356   7.894
69437W        W22333  22.250  15.295   1.508
69438W        W22334  10.529  12.542   2.134
69439W        W22335  32.966   7.884   1.324
69440W        W22336  29.508  31.139   1.418
69441W        W22337  18.794  21.433   9.153
69442W        W22338   0.398  10.588   9.996
69443W        W22339  32.657  23.312   8.450
69444W        W22340  16.354  22.413   2.591
69445W        W22341   8.180  33.634   2.746
69446W        W22342   5.927  10.643  10.173
69447W        W22343  24.872   7.885   9.941
69448W        W22344  18.517   1.092   7.984
69449W        W22345  13.392   9.052   9.363
69450W        W22346  21.003  10.314   8.877
69451W        W22347  23.768  19.798   7.612
69452W        W22348  21.320  11.308   9.079
69453W        W22349  33.011  22.497  10.260
69454W        W22350  34.510  25.482   8.745
69455W        W22351  16.380   9.798   0.669
69456W        W22352  27.712  24.517   9.995
69457W        W22353  31.882   6.825   1.629
69458W        W22354  17.973  13.025   7.514
69459W        W22355  15.474  30.167   1.117
69460W        W22356  21.985  17.503  10.057
69461W        W22357  19.705   4.630   3.593
69462W        W22358  17.284  30.696   8.504
69463W        W22359  18.079  33.064   2.424
69464W        W22360  23.409  35.676   7.490
69465W        W22361   6.429  22.852   2.676
69466W        W22362  15.252  20.012   0.900
69467W        W22363  15.386   6.440   0.474
69468W        W22364  20.501  30.764   9.810
69469W        W22365  28.387  19.294   0.353
69470W        W22366  31.761  32.414   9.268
69471W        W22367  25.153   9.997   7.780
69472W        W22368  34.346   5.279   2.364
69473W        W22369  10.614  32.940   2.527
69474W        W22370  25.214   0.094   0.669
69475W        W22371  27.431  19.537   0.941
69476W        W22372  30.352  16.154   1.332
69477W        W22373  10.552   2.664   2.526
69478W        W22374  16.518   6.484   0.771
69479W        W22375  13.728   6.373  10.062
69480W        W22376  30.992  24.789   8.885
69481W        W22377   5.272   2.211  10.245
69482W        W22378  20.411  34.670   8.301
69483W        W22379  29.189  13.215   8.229
69484W        W22380  21.296  32.404   9.274
69485W        W22381   6.902   4.598   1.491
69486W        W22382  12.199  28.510   2.001
69487W        W22383  20.082   2.655   8.662
69488W        W22384   7.212  34.281  10.157
69489W        W22385  13.006   4.426   7.657
69490W        W22386   6.595  31.002   8.593
69491W        W22387  33.933  13.580   1.689
69492W        W22388  32.172   3.477  10.279
69493W        W22389  15.214  33.811   2.153
69494W        W22390   1.771  16.061   3.364
69495W        W22391   5.754  14.673   1.031
69496W        W22392  23.956  26.573   8.045
69497W        W22393  23.932   7.418   0.330
69498W        W22394  19.477   7.475   9.566
69499W        W22395   2.684  20.137   2.182
69500W        W22396  20.619  16.166   9.018
69501W        W22397   1.830  29.077   7.667
69502W        W22398  27.703  19.235   8.265
69503W        W22399  34.068  35.706   0.849
69504W        W22400  21.418   9.774   2.269
69505W        W22401  25.082   6.479  10.255
69506W        W22402  21.913  28.337   0.230
69507W        W22403  25.858   5.125   8.815
69508W        W22404  19.814  25.655   0.606
69509W        W22405  18.045  22.653   1.414
69510W        W22406   2.670  21.152   1.696
69511W        W22407   6.413  18.692  10.251
69512W        W22408  14.910   9.478   1.151
69513W        W22409  28.230  24.163   7.666
69514W        W22410  31.171  20.233   2.757
69515W        W22411  17.231   5.984   3.610
69516W        W22412  31.771  14.837   9.303
69517W        W22413   6.829  24.539   6.929
69518W        W22414  35.847   8.460   1.844
69519W        W22415  11.384  23.660   9.852
69520W        W22416  15.622   1.872  10.034
69521W        W22417   4.503  24.738   8.309
69522W        W22418  30.242  21.814   0.123
69523W        W22419  18.577   9.324   8.170
69524W        W22420  30.601  32.968   0.798
69525W        W22421  12.731   6.100   0.116
69526W        W22422   5.035  15.965   0.007
69527W        W22423  12.946  30.463   8.395
69528W        W22424  15.763  16.122   9.090
69529W        W22425   9.842  11.423   8.188
69530W        W22426  14.925  32.009   9.326
69531W        W22427  31.553  31.659   8.331
69532W        W22428  30.765   6.883   9.926
69533W        W22429  10.980   4.180  10.180
69534W        W22430   1.004   1.507   0.531
69535W        W22431   2.554  31.041   3.356
69536W        W22432  31.138  29.547   1.235
69537W        W22433  28.163  13.762   7.967
69538W        W22434   3.077  20.926   1.788
69539W        W22435  14.150  25.268   3.197
69540W        W22436   7.017   4.136   8.868
69541W        W22437   7.985  10.985   9.072
69542W        W22438  18.001   5.174   1.199
69543W        W22439   2.677  21.661   3.123
69544W        W22440   8.896  16.582   9.586
69545W        W22441  32.679   9.902   0.820
69546W        W22442  28.848  24.938   8.261
69547W        W22443  21.710  24.156   1.593
69548W        W22444  23.129   7.912  10.243
69549W        W22445  11.911  24.021   7.176
69550W        W22446  24.320  17.262   1.139
69551W        W22447  28.041  32.691   8.360
69552W        W22448  20.037  10.327   2.380
69553W        W22449  18.363  28.030   0.666
69554W        W22450  34.361   3.796   0.651
69555W        W22451  15.393  12.751   9.744
69556W        W22452   0.495  11.931   3.021
69557W        W22453  18.719   9.431   9.848
69558W        W22454  22.994  14.750   3.088
69559W        W22455   1.348  23.968   9.284
69560W        W22456  17.642   6.481   9.419
69561W        W22457  14.860  19.170   2.757
69562W        W22458  25.839  15.931   2.349
69563W        W22459  26.389  14.469   9.475
69564W        W22460  24.872  22.908   2.397
69565W        W22461   6.690  33.328   0.985
69566W        W22462   0.694  26.822   3.079
69567W        W22463  29.486  21.994   0.285
69568W        W22464   6.012  26.920   9.847
69569W        W22465  14.597   4.488   9.610
69570W        W22466  25.026  32.058   0.349
69571W        W22467   1.229  27.684   8.853
69572W        W22468   1.033  29.321   7.876
69573W        W22469  19.202  32.298   3.184
69574W        W22470   4.944  18.991   8.672
69575W        W22471  23.155   2.375   9.085
69576W        W22472   7.721  12.912   2.478
69577W        W22473  25.790  35.408   0.051
69578W        W22474   3.246   3.015   2.936
69579W        W22475  26.411  19.144   9.766
69580W        W22476  35.630  14.778  10.001
69581W        W22477   8.298  30.553   1.334
69582W        W22478  22.979   5.978   0.141
69583W        W22479  18.623  17.592   9.074
69584W        W22480  18.865  31.943   9.429
69585W        W22481  16.835  18.765   9.313
69586W        W22482  12.698  11.387   0.397
69587W        W22483  32.282  29.998   1.495
69588W        W22484  10.666  20.422   1.113
69589W        W22485  28.418  32.241   7.271
69590W        W22486  20.840  17.665   8.033
69591W        W22487  33.552  15.468   8.608
69592W        W22488   6.570  18.985   0.345
69593W        W22489  32.283   1.117   9.547
69594W        W22490  30.124  31.068   0.518
69595W        W22491  12.782  10.813   0.561
69596W        W22492  25.587  19.814   0.807
69597W        W22493  22.032  11.229   2.487
69598W        W22494   4.479   9.890   8.073
69599W        W22495   2.173   5.632   1.831
69600W        W22496  32.965  32.650   7.943
69601W        W22497  21.234  12.326   9.350
69602W        W22498  35.925  26.667   7.929
69603W        W22499  30.671  25.781   0.904
69604W        W22500  19.428  11.485   3.010
69605W        W22501  17.350   8.119   9.021
69606W        W22502  32.545  10.884   3.200
69607W        W22503  25.495   1.657   2.889
69608W        W22504   8.639   7.360   2.073
69609W        W22505  30.080  14.528   0.676
69610W        W22506  19.581   6.717  10.084
69611W        W22507  20.012  17.657   1.033
69612W        W22508  18.117  19.789   9.289
69613W        W22509  26.899  29.810   8.709
69614W        W22510  29.211   0.424   0.063
69615W        W22511  33.519  21.747   2.163
69616W        W22512  24.561  35.014  10.117
69617W        W22513  28.919   9.040   2.041
69618W        W22514  25.360   0.125   9.053
69619W        W22515   6.949  35.394  10.050
69620W        W22516   6.331  33.523   1.806
69621W        W22517  27.218  34.694   2.384
69622W        W22518  12.221  21.657   9.743
69623W        W22519  11.851  33.583   3.009
69624W        W22520  27.119  28.306   7.058
69625W        W22521  27.999   4.411   2.204
69626W        W22522   2.776  16.606   7.510
69627W        W22523   4.334  17.340   0.266
69628W        W22524  22.020  11.110   0.938
69629W        W22525  26.118   4.255   9.478
69630W        W22526  35.643   0.874   0.349
69631W        W22527  12.530  22.151   9.652
69632W        W22528  19.888   4.167  10.282
69633W        W22529  28.685   4.605   8.703
69634W        W22530   6.321  26.716   2.459
69635W        W22531  18.619  17.298   1.303
69636W        W22532   8.963  20.390   9.030
69637W        W22533  29.598   7.372   8.780
69638W        W22534  10.662   4.379   1.297
69639W        W22535  26.846  22.526   1.374
69640W        W22536  30.903   2.612   9.176
69641W        W22537  27.623  23.441   7.527
69642W        W22538  35.336  29.706   1.938
69643W        W22539   7.737   9.968   7.412
69644W        W22540  33.710   7.024   7.891
69645W        W22541  12.363  12.795   3.712
69646W        W22542   4.074   6.714   2.453
69647W        W22543  27.731  35.350   9.447
69648W        W22544   4.059   0.029   2.257
69649W        W22545  28.368  27.129   7.550
69650W        W22546   4.983  25.711  10.051
69651W        W22547  29.296  10.211   9.086
69652W        W22548  26.204  11.686   1.462
69653W        W22549  33.412  16.697   2.377
69654W        W22550  15.212  22.816   9.013
69655W        W22551   4.723  25.989   2.323
69656W        W22552  16.817  15.673   2.388
69657W        W22553  22.908  14.955   9.536
69658W        W22554  28.088  12.208   9.146
69659W        W22555  15.294   5.217   8.469
69660W        W22556   6.655  10.769   3.302
69661W        W22557  26.045   0.393   2.180
69662W        W22558  19.498  31.709   1.339
69663W        W22559  28.752  13.755   9.627
69664W        W22560  26.178  16.096   1.388
69665W        W22561  21.758   8.326   0.341
69666W        W22562   5.492  32.495   1.165
69667W        W22563  19.690   9.909   2.121
69668W        W22564  28.240  17.378   0.594
69669W        W22565   4.302  18.031   8.294
69670W        W22566  16.380  26.465   0.830
69671W        W22567  35.290  35.213  10.047
69672W        W22568   9.570   9.193   8.792
69673W        W22569   8.311   2.983   9.579
69674W        W22570   3.537  35.767   1.638
69675W        W22571   6.787  19.593   2.096
69676W        W22572  34.299  33.059   9.258
69677W        W22573   1.395  19.739   4.150
69678W        W22574  24.319  12.333   1.691
69679W        W22575  35.096  12.019   1.807
69680W        W22576   0.419  25.497  10.248
69681W        W22577  33.402  19.560   2.732
69682W        W22578   2.471  20.105   0.917
69683W        W22579  26.956  30.607   9.345
69684W        W22580  16.876   8.522   8.242
69685W        W22581   8.252  18.933   3.536
69686W        W22582  29.894  29.651   8.050
69687W        W22583  24.432   5.080   1.358
69688W        W22584  29.917  34.950   8.118
69689W        W22585  17.347  15.906   7.810
69690W        W22586  34.653  33.702   1.609
69691W        W22587  34.600  17.870   2.946
69692W        W22588  34.654  11.430   1.145
69693W        W22589  17.026  32.739   9.648
69694W        W22590  17.523  11.166   9.863
69695W        W22591   0.987   3.800   3.332
69696W        W22592  10.853   2.742   2.150
69697W        W22593   5.660  17.610   9.521
69698W        W22594  17.108  31.748   8.532
69699W        W22595  18.608  19.260   1.546
69700W        W22596   7.759  31.846   9.033
69701W        W22597  30.721  33.841   0.519
69702W        W22598  26.522  23.478   8.470
69703W        W22599   9.497  15.466   3.114
69704W        W22600  17.563  17.961   2.332
69705W        W22601  29.986  26.024   2.469
69706W        W22602   7.874  32.016   8.422
69707W        W22603  26.571  17.023   8.614
69708W        W22604   1.974  22.431   1.797
69709W        W22605  24.940  19.131   8.260
69710W        W22606  22.103  14.893   8.208
69711W        W22607  10.614  20.439   1.570
69712W        W22608   5.706   6.711  10.026
69713W        W22609  16.786  11.772   9.298
69714W        W22610  27.235  16.158   8.113
69715W        W22611  35.801  10.611   7.918
69716W        W22612  33.620  20.455   9.769
69717W        W22613  32.093  17.292   3.904
69718W        W22614  14.550  14.254   0.599
69719W        W22615  33.855  24.397   8.717
69720W        W22616  28.334   3.148   9.791
69721W        W22617   3.437  10.575   8.570
69722W        W22618   3.748  15.943   1.176
69723W        W22619   8.699  23.492   9.120
69724W        W22620   8.432   0.460   1.674
69725W        W22621  29.203   9.448   1.929
69726W        W22622  13.348   8.309   2.065
69727W        W22623  19.247  34.093   2.757
69728W        W22624  24.767  14.308  10.290
69729W        W22625  28.344  16.953   8.123
69730W        W22626  22.198  20.455   8.297
69731W        W22627  35.375  26.569   9.467
69732W        W22628  19.240  34.584   9.401
69733W        W22629   5.882  19.468   8.171
69734W        W22630  27.188  19.138   7.448
69735W        W22631  31.938  32.251   0.950
69736W        W22632   9.916   4.343   7.093
69737W        W22633  31.673  30.750   3.045
69738W        W22634  31.648  35.210   2.524
69739W        W22635   4.891  14.422   2.048
69740W        W22636  31.079  12.474   2.770
69741W        W22637   0.886  18.931   9.733
69742W        W22638   8.739   4.651   8.085
69743W        W22639  32.551  30.089  10.088
69744W        W22640  17.662  32.168   7.296
69745W        W22641   1.404  28.851   8.438
69746W        W22642   8.232  34.348   6.842
69747W        W22643  14.047  34.049  10.254
69748W        W22644   4.343  25.688   1.135
69749W        W22645  12.549  11.503   8.748
69750W        W22646  27.212  31.241   1.657
69751W        W22647  20.035  19.913   7.594
69752W        W22648  10.066   9.821   9.140
69753W        W22649   0.152   7.977   1.435
69754W        W22650  18.661  20.473   2.221
69755W        W22651   3.781  13.722   0.365
69756W        W22652  20.152  25.382   9.277
69757W        W22653   0.505  12.529   3.666
69758W        W22654   6.553  24.645   2.924
69759W        W22655   8.732  34.219   0.883
69760W        W22656  18.670  31.741   1.750
69761W        W22657  23.737  33.560   8.431
69762W        W22658  24.342  30.884   0.889
69763W        W22659  30.843  10.679   2.684
69764W        W22660  25.193   2.410   9.699
69765W        W22661  10.047  14.593   9.380
69766W        W22662  21.572  25.308   2.551
69767W        W22663  16.217  30.024   3.024
69768W        W22664   2.460   5.199   2.707
69769W        W22665  18.769   4.694   3.672
69770W        W22666  33.011  16.579   2.001
69771W        W22667  25.318  28.434   3.217
69772W        W22668  33.177  14.714   1.346
69773W        W22669  10.179   4.861   2.555
69774W        W22670  22.763  10.870   9.826
69775W        W22671   4.562  12.745  10.323
69776W        W22672  14.883  14.755   0.594
69777W        W22673  34.391  32.666   1.762
69778W        W22674  34.017  16.885   9.772
69779W        W22675  34.461   6.403   8.014
69780W        W22676  24.427   4.666   0.289
69781W        W22677  20.214  12.605   9.573
69782W        W22678   2.357  16.386   2.643
69783W        W22679  22.077  15.204   1.047
69784W        W22680   9.681  27.098   7.892
69785W        W22681   4.622  10.841   0.286
69786W        W22682   1.127  15.159   0.812
69787W        W22683  11.068   1.369   8.433
69788W        W22684  34.596  15.124   3.491
69789W        W22685  35.969  16.580   1.864
69790W        W22686  35.586  31.802   0.046
69791W        W22687   1.705   8.706   0.594
69792W        W22688  18.607   3.455   9.372
69793W        W22689  16.426  34.856   0.785
69794W        W22690  34.951  33.084   2.772
69795W        W22691  10.415  27.734   9.904
69796W        W22692  22.918  21.943   0.506
69797W        W22693   7.900  15.412   3.928
69798W        W22694   4.063  27.612   9.963
69799W        W22695  11.614  35.605   0.175
69800W        W22696  16.969   4.425   1.790
69801W        W22697  30.176   9.656  10.197
69802W        W22698  10.290   7.232   1.889
69803W        W22699  34.694  13.642   8.129
69804W        W22700  23.498  33.137   9.897
69805W        W22701   6.667  23.260   9.537
69806W        W22702  18.119  19.472   2.898
69807W        W22703   2.923  35.473   9.503
69808W        W22704  35.128   5.265   9.926
69809W        W22705  23.294  26.165   1.318
69810W        W22706  10.777  18.095   2.147
69811W        W22707   4.925  31.621  10.055
69812W        W22708  31.094  35.213   2.442
69813W        W22709  25.945  18.631   7.853
69814W        W22710  17.749  31.091   0.314
69815W        W22711   2.215  24.810   0.594
69816W        W22712   4.101  28.291   1.130
69817W        W22713   6.840   0.222   7.824
69818W        W22714  31.756  19.106   2.295
69819W        W22715  35.170  10.160   2.450
69820W        W22716  34.152   1.791   9.185
69821W        W22717  21.569  26.958   9.027
69822W        W22718  33.184  26.232  10.180
69823W        W22719  11.997   9.624   9.568
69824W        W22720  12.532   5.168   7.343
69825W        W22721  10.129   5.275   3.289
69826W        W22722   1.866  28.251   0.590
69827W        W22723  27.036  22.617   8.187
69828W        W22724  18.339  15.881   3.329
69829W        W22725   0.898   4.246   1.566
69830W        W22726  27.930  13.148   1.602
69831W        W22727   9.812  23.844   1.242
69832W        W22728  33.216  21.634   2.815
69833W        W22729   6.243   0.457   8.540
69834W        W22730  13.775  35.587   7.780
69835W        W22731  12.106   8.512   8.523
69836W        W22732  27.163  13.323   0.929
69837W        W22733  24.948   9.566   8.144
69838W        W22734  19.399   2.551   2.067
69839W        W22735   0.459   3.668   7.844
69840W        W22736  33.494  34.477   0.022
69841W        W22737   2.259  25.001   0.137
69842W        W22738  14.282  25.048   9.664
69843W        W22739   4.971  20.425   8.526
69844W        W22740  31.053   5.814   1.345
69845W        W22741  22.921  26.519   8.184
69846W        W22742  21.650  23.383   3.695
69847W        W22743  26.479   3.747   9.672
69848W        W22744  17.209  23.700   2.463
69849W        W22745  11.317  22.394   0.916
69850W        W22746  34.626   5.775   2.693
69851W        W22747   9.502  12.962   0.077
69852W        W22748   9.566  10.654   7.679
69853W        W22749  33.427   9.265  10.067
69854W        W22750  27.343  23.989   8.679
69855W        W22751  29.529   5.479   3.376
69856W        W22752  16.313   1.956   8.579
69857W        W22753  34.208  26.403   8.273
69858W        W22754  32.025  27.656   1.749
69859W        W22755  18.723   8.783   8.412
69860W        W22756  21.765  22.199   9.510
69861W        W22757  23.882  11.295  10.299
69862W        W22758   7.332  18.466   1.940
69863W        W22759  21.010  10.294  10.121
69864W        W22760  17.079  17.000   8.414
69865W        W22761  31.549  14.917   7.887
69866W        W22762  14.487   6.137   9.797
69867W        W22763  24.818  27.069   2.573
69868W        W22764  28.245  30.698   8.450
69869W        W22765  22.150   7.882   1.147
69870W        W22766   7.896  17.609   7.108
69871W        W22767  18.505  16.048   8.501
69872W        W22768  32.734  35.329   2.872
69873W        W22769  27.428  23.456   9.065
69874W        W22770  10.753  23.116   1.163
69875W        W22771   9.334   3.558   1.063
69876W        W22772   8.291  23.964   1.077
69877W        W22773   9.895  25.210   7.388
69878W        W22774  13.010   3.832   2.824
69879W        W22775  21.744   1.839   1.384
69880W        W22776  34.302  20.820   2.329
69881W        W22777   1.867  31.450   9.206
69882W        W22778  14.298  20.168   0.881
69883W        W22779  20.388  20.355   1.509
69884W        W22780   5.001  21.942   9.939
69885W        W22781  11.579   9.242   7.640
69886W        W22782  27.668  31.401   0.056
69887W        W22783  16.492  30.464   9.533
69888W        W22784  22.394  23.054   9.414
69889W        W22785  33.249  19.651   1.128
69890W        W22786  14.148  31.240  10.166
69891W        W22787  27.390  14.012   2.795
69892W        W22788  20.262  14.381   7.942
69893W        W22789  20.517  31.239   3.450
69894W        W22790   3.167  29.296   9.313
69895W        W22791  21.668  14.073   8.821
69896W        W22792  14.376  29.745   8.504
69897W        W22793  19.108   7.248   9.326
69898W        W22794   8.379   9.555   2.435
69899W        W22795  28.825  30.340   7.219
69900W        W22796  10.206  34.972   1.124
69901W        W22797  12.284  32.653   7.914
69902W        W22798   7.426  34.859   8.715
69903W        W22799  32.429  26.147   1.150
69904W        W22800  12.415  11.076   2.701
69905W        W22801  34.057  34.259   7.893
69906W        W22802  12.145  24.624   8.060
69907W        W22803   6.956   1.518   1.032
69908W        W22804   9.533  13.803   8.456
69909W        W22805  24.122   0.147   0.567
69910W        W22806  16.964  33.062   8.274
69911W        W22807  31.306  13.689   9.865
69912W        W22808   8.067  26.055   2.436
69913W        W22809  10.256  20.164   2.055
69914W        W22810  12.847  14.398   8.530
69915W        W22811  21.672  29.769   2.234
69916W        W22812  15.530   9.833   2.844
69917W        W22813  25.296  32.356   7.342
69918W        W22814  25.008  34.253  10.053
69919W        W22815  28.409  15.312   1.593
69920W        W22816  29.549  23.400   9.927
69921W        W22817  34.641   3.783   8.204
69922W        W22818  34.089   3.882   7.787
69923W        W22819   9.039  15.458   3.455
69924W        W22820  15.311  14.571   8.039
69925W        W22821  26.733  19.897   9.456
69926W        W22822  30.679  35.904   1.705
69927W        W22823  18.430  11.567   7.258
69928W        W22824   3.531  30.970   1.876
69929W        W22825  24.796  28.714   9.079
69930W        W22826   7.376  16.386   2.428
69931W        W22827   8.988  13.857   0.209
69932W        W22828  20.464   0.312   9.306
69933W        W22829  17.955   3.642   8.786
69934W        W22830  33.742   4.307  10.223
69935W        W22831  14.086  28.916   1.514
69936W        W22832  29.943  35.406   8.960
69937W        W22833   5.021   4.719   1.064
69938W        W22834   2.868  27.927   2.298
69939W        W22835  28.310   7.857   2.474
69940W        W22836  19.698  11.797   0.265
69941W        W22837  31.334  11.790   7.438
69942W        W22838  15.042  17.244   9.919
69943W        W22839   2.756   2.446   9.392
69944W        W22840  34.628  25.964   1.156
69945W        W22841   9.187  29.423   7.933
69946W        W22842  26.446  23.491   1.580
69947W        W22843  19.713  29.118   8.757
69948W        W22844  34.913  11.438   0.544
69949W        W22845  32.362  18.887   9.782
69950W        W22846  10.108   5.205   7.504
69951W        W22847  14.444  15.983   1.795
69952W        W22848  34.493  12.288   9.525
69953W        W22849  18.028   9.260   2.326
69954W        W22850  20.091  11.243   2.719
69955W        W22851  32.545  34.548   0.687
69956W        W22852  35.225  35.830   8.188
69957W        W22853  31.856  23.181   9.585
69958W        W22854  29.950   5.624   9.857
69959W        W22855   0.037   3.613   2.817
69960W        W22856  27.473   2.611   0.869
69961W        W22857   5.411  16.207   2.009
69962W        W22858  13.427  25.661   7.920
69963W        W22859  19.988   0.105   7.534
69964W        W22860  30.758  12.520   7.270
69965W        W22861  12.512   4.639   7.708
69966W        W22862  12.717   1.837   8.106
69967W        W22863  11.929  25.134   0.246
69968W        W22864  11.292  16.079   2.444
69969W        W22865  32.412  25.535   0.524
69970W        W22866   7.755  35.717   7.731
69971W        W22867  19.911  22.679   8.156
69972W        W22868  27.770  13.943   9.840
69973W        W22869  16.760  20.165   7.725
69974W        W22870  23.648  14.194   1.153
69975W        W22871  21.441   2.021   1.010
69976W        W22872  18.298  27.312   0.042
69977W        W22873  27.626   8.805   3.109
69978W        W22874  35.849  31.460   7.910
69979W        W22875  13.276  25.217   1.822
69980W        W22876  18.030  12.804  10.226
69981W        W22877  33.403   8.255   7.846
69982W        W22878  26.454   6.442   7.686
69983W        W22879  11.517  18.585   9.755
69984W        W22880   3.426  12.690   7.998
69985W        W22881  35.502  22.935   9.808
69986W        W22882  34.143  21.794   1.835
69987W        W22883  33.832  12.035   1.412
69988W        W22884  21.623  15.353   0.498
69989W        W22885  11.592  27.488   1.407
69990W        W22886  32.655  28.012   1.247
69991W        W22887  20.572  22.666   8.184
69992W        W22888  20.348   0.555   0.192
69993W        W22889   4.972  21.394   2.928
69994W        W22890  26.542  25.555   0.859
69995W        W22891  23.108   3.851   0.603
69996W        W22892  30.027  18.746   7.275
69997W        W22893  19.761  21.510   8.658
69998W        W22894  21.946   2.858   9.009
69999W        W22895  21.324  16.425  10.046
70000W        W22896  23.485   3.552   0.631
70001W        W22897  33.764  24.822   2.871
70002W        W22898  12.318  32.170   0.087
70003W        W22899  12.698  25.214   0.196
70004W        W22900  33.372  33.466   8.182
70005W        W22901  33.317  35.277   0.539
70006W        W22902   7.163  27.050   8.572
70007W        W22903  28.667  15.810   8.183
70008W        W22904  16.704  25.983   8.303
70009W        W22905   8.033   2.579   3.292
70010W        W22906  13.775   7.247  10.169
70011W        W22907   6.894  14.273   1.864
70012W        W22908  17.565  26.353   1.477
70013W        W22909  16.645  28.884   3.125
70014W        W22910  15.916  12.064   8.905
70015W        W22911   7.429  19.030   3.209
70016W        W22912   5.167  35.612   2.234
70017W        W22913   3.674  25.829   0.469
70018W        W22914  17.822   4.235   1.915
70019W        W22915  23.918  35.026   1.747
70020W        W22916   2.315   8.844   8.052
70021W        W22917  13.992  28.553   8.539
70022W        W22918  19.198  35.720   8.447
70023W        W22919  20.839  33.943   9.306
70024W        W22920  22.687  16.968   9.874
70025W        W22921   5.500  31.700   7.418
70026W        W22922  29.952  12.999   9.454
70027W        W22923  10.569   1.651   8.613
70028W        W22924   5.613  32.445   0.256
70029W        W22925  16.887   6.667   1.892
70030W        W22926  11.892  14.029   9.874
70031W        W22927   4.710   5.246   8.333
70032W        W22928  30.055  27.267  10.027
70033W        W22929   0.577  15.763   9.079
70034W        W22930   7.235  25.218   8.858
70035W        W22931   3.115  21.740   9.361
70036W        W22932  19.127  19.536   1.529
70037W        W22933   4.504   8.405   0.632
70038W        W22934   7.705  20.254   9.317
70039W        W22935   5.897  19.216   1.019
70040W        W22936   6.059   5.868   3.160
70041W        W22937   7.808   1.302   0.591
70042W        W22938  23.666  23.834   7.223
70043W        W22939  19.377  18.554   1.022
70044W        W22940  10.936  10.148   9.059
70045W        W22941   7.642   2.805   7.719
70046W        W22942  23.374  16.612   9.741
70047W        W22943   3.213   0.406   8.779
70048W        W22944  14.277   8.355   1.540
70049W        W22945   8.567  34.639   1.134
70050W        W22946  27.615   4.426   3.182
70051W        W22947  27.431  29.293   2.379
70052W        W22948  33.275  35.454   1.490
70053W        W22949   4.354  27.308   7.285
70054W        W22950  31.853   5.162   9.744
70055W        W22951   1.533  25.013   9.379
70056W        W22952  10.742  19.919   9.673
70057W        W22953  21.590  11.490   9.570
70058W        W22954  25.949  32.268   2.809
70059W        W22955  14.930  35.972   8.254
70060W        W22956  32.994  31.352   1.709
70061W        W22957   0.953  11.270  10.075
70062W        W22958  16.073  26.480   8.191
70063W        W22959  16.219  17.928   1.462
70064W        W22960  29.110  31.355   1.230
70065W        W22961   0.918   1.082   1.612
70066W        W22962  35.492   7.477   8.009
70067W        W22963  31.223  35.333   2.905
70068W        W22964   4.506  17.155   1.186
70069W        W22965  19.208  20.982   1.180
70070W        W22966   6.171  11.008   7.999
70071W        W22967  16.025   4.684   8.574
70072W        W22968  14.900   6.608   0.280
70073W        W22969  28.960  14.448   8.410
70074W        W22970  11.865   2.665   9.365
70075W        W22971   2.200  17.288   8.126
70076W        W22972  22.694  29.698  10.198
70077W        W22973  19.431  17.234   2.218
70078W        W22974  16.907  28.856   2.530
70079W        W22975  28.031  33.934   8.639
70080W        W22976  22.893  33.899   7.904
70081W        W22977   9.360  15.817   9.295
70082W        W22978   6.865  27.094   9.732
70083W        W22979   3.594  17.454   8.192
70084W        W22980  35.854  23.480   8.001
70085W        W22981  17.739  31.077   7.586
70086W        W22982  27.237  14.810   9.035
70087W        W22983  19.592   1.015   3.041
70088W        W22984   1.691  32.806   0.555
70089W        W22985  21.365  15.229   1.900
70090W        W22986  11.840  10.507   9.217
70091W        W22987  18.664  25.879   3.317
70092W        W22988   7.541  28.486   0.901
70093W        W22989  33.003  28.209   1.550
70094W        W22990  35.519   0.700   1.178
70095W        W22991  30.667  32.859   1.273
70096W        W22992   9.898  32.974   0.200
70097W        W22993  12.468  22.249   7.514
70098W        W22994  19.611  23.193   0.520
70099W        W22995   6.459  31.740   3.928
70100W        W22996  22.254   7.787   8.402
70101W        W22997  18.950  11.194   2.772
70102W        W22998   5.096   3.294   9.109
70103W        W22999  17.473  34.395   3.012
70104W        W23000   5.678  14.678  10.072
70105W        W23001  15.663   3.205   3.005
70106W        W23002  13.212  16.485   8.401
70107W        W23003   0.054  11.894   8.682
70108W        W23004  10.354  21.928   1.245
70109W        W23005  21.564  15.196   8.107
70110W        W23006  23.003  35.740   8.338
70111W        W23007  12.509  12.931   7.738
70112W        W23008  15.445   2.050   7.949
70113W        W23009  32.417   2.859   7.986
70114W        W23010   9.668  23.379   9.677
70115W        W23011  26.271   1.262   2.415
70116W        W23012  13.135  20.108   9.303
70117W        W23013  14.029  17.605   8.047
70118W        W23014  17.467   7.450   0.215
70119W        W23015   7.908  17.183   8.778
70120W        W23016   9.521   0.101   0.202
70121W        W23017   6.515   3.667   1.353
70122W        W23018  12.339  31.780   8.336
70123W        W23019  13.964  19.194   2.390
70124W        W23020  34.854   9.610   3.032
70125W        W23021   4.633   0.885   1.266
70126W        W23022  26.484  12.481   1.907
70127W        W23023  27.045  14.413   2.444
70128W        W23024   6.232  16.725  10.111
70129W        W23025  31.055  22.288   9.584
70130W        W23026   6.281  14.733   7.306
70131W        W23027  24.795  30.135   1.825
70132W        W23028  26.436  24.259   8.048
70133W        W23029  12.778  23.978   1.891
70134W        W23030  24.482  10.288   8.886
70135W        W23031  27.662  34.283   2.226
70136W        W23032  13.898  17.560   0.836
70137W        W23033   6.514   5.368   8.937
70138W        W23034  32.869  19.143   1.339
70139W        W23035  35.779   5.772   9.969
70140W        W23036  11.715  26.537   2.782
70141W        W23037  20.466   6.453   7.980
70142W        W23038   9.976  13.900   8.554
70143W        W23039  17.666  23.256   9.514
70144W        W23040  28.182  14.378   2.930
70145W        W23041  22.493  14.933   1.150
70146W        W23042  28.335   7.497   0.354
70147W        W23043  11.835  14.089   2.890
70148W        W23044  12.689  22.954   1.234
70149W        W23045  28.188   3.069   2.833
70150W        W23046  16.599  25.594   8.052
70151W        W23047   9.709  27.784   0.309
70152W        W23048   6.808   9.989  10.213
70153W        W23049  29.074  15.772   0.190
70154W        W23050   8.603   8.010   0.385
70155W        W23051  19.869  12.407   0.901
70156W        W23052  11.764  22.718   2.434
70157W        W23053  32.847  31.354   3.718
70158W        W23054   6.478   9.398   2.703
70159W        W23055  21.159   5.016   2.991
70160W        W23056   6.626  24.263   3.951
70161W        W23057   9.820   5.020   8.149
70162W        W23058   3.535  14.432   1.548
70163W        W23059  18.705  19.548   3.272
70164W        W23060  27.595  21.123   2.499
70165W        W23061   3.861  11.228   3.605
70166W        W23062  18.331  32.353   3.162
70167W        W23063  12.466   0.604   0.392
70168W        W23064  34.589   5.822   8.736
70169W        W23065   9.422   3.458  10.093
70170W        W23066  15.853  35.630   8.219
70171W        W23067  19.043  24.024   3.212
70172W        W23068  21.214  26.237   7.344
70173W        W23069   7.494  16.885   1.160
70174W        W23070  29.030   2.245   8.589
70175W        W23071  24.501  18.295   3.301
70176W        W23072  28.087  26.807   2.570
70177W        W23073  11.466   1.411   0.971
70178W        W23074  25.547  16.224   8.271
70179W        W23075  10.036  23.564   8.871
70180W        W23076   4.007  10.334   3.304
70181W        W23077  24.618  32.243   0.041
70182W        W23078  18.986   9.109   9.600
70183W        W23079  18.874  23.987   8.415
70184W        W23080  21.582  14.364   3.087
70185W        W23081   2.070   8.440   9.234
70186W        W23082   6.138   2.562   8.796
70187W        W23083  34.310  27.405   0.894
70188W        W23084  22.382  13.701   7.624
70189W        W23085  12.243  24.536   9.477
70190W        W23086  30.072  19.281   8.912
70191W        W23087  29.165  23.534   9.665
70192W        W23088   6.550   7.936   1.364
70193W        W23089  29.208  21.998   2.769
70194W        W23090  35.140  22.211   0.724
70195W        W23091   1.609   6.542  10.143
70196W        W23092   5.721   1.009   8.958
70197W        W23093  26.403  31.564   1.599
70198W        W23094  14.300  15.799   8.908
70199W        W23095  22.559   5.191   2.951
70200W        W23096   3.446  14.503   3.992
70201W        W23097   7.615  14.998   8.261
70202W        W23098   5.831   7.364   8.861
70203W        W23099  29.487   2.381   8.546
70204W        W23100  16.414  19.277   1.618
70205W        W23101  33.803  12.600   9.875
70206W        W23102  19.992  29.789   2.908
70207W        W23103  19.636  21.510   2.576
70208W        W23104  17.332  24.393  10.049
70209W        W23105  28.234  26.410   8.217
70210W        W23106   7.644   7.012   7.778
70211W        W23107  24.567  29.945   7.846
70212W        W23108  15.442  29.166   3.566
70213W        W23109  24.198   2.403   0.278
70214W        W23110   5.123  12.948   9.107
70215W        W23111  21.611  35.655   3.019
70216W        W23112  11.500  27.151   8.341
70217W        W23113  31.959  27.824   0.232
70218W        W23114  27.545  31.061   9.724
70219W        W23115   2.190  15.567   1.713
70220W        W23116   3.013   9.858   0.604
70221W        W23117  14.022  10.546   2.328
70222W        W23118  23.547  18.215   9.333
70223W        W23119  16.246  18.553   2.220
70224W        W23120   2.969  15.316   7.689
70225W        W23121  30.108  11.800  10.054
70226W        W23122  19.060  11.659   8.027
70227W        W23123   4.558  31.659   2.585
70228W        W23124  22.221   0.642   9.207
70229W        W23125  21.847  26.185   9.469
70230W        W23126  32.321   1.003  10.062
70231W        W23127  13.312  12.408   0.548
70232W        W23128  24.161  15.059   8.586
70233W        W23129  27.654  21.306   8.663
70234W        W23130  13.671  10.752   7.945
70235W        W23131  35.562   5.902   0.403
70236W        W23132  33.875   1.352   3.123
70237W        W23133  26.504  22.176   2.940
70238W        W23134  33.264  23.425   2.602
70239W        W23135   3.256   5.836  10.329
70240W        W23136  28.487  13.387  10.204
70241W        W23137  27.251  12.141   1.975
70242W        W23138  13.401   9.015   2.885
70243W        W23139  24.008   1.940   0.591
70244W        W23140  16.315  16.704   0.614
70245W        W23141  28.265  27.209   2.870
70246W        W23142  28.622  17.565   7.466
70247W        W23143  26.067  15.636   0.081
70248W        W23144  16.716  25.074   0.464
70249W        W23145   6.126  18.601   8.712
70250W        W23146  18.068  20.984   1.930
70251W        W23147  11.388  18.898   0.755
70252W        W23148   4.005  29.763   1.380
70253W        W23149   6.458  21.713   1.988
70254W        W23150  11.384  33.891   3.313
70255W        W23151  17.048  11.102   9.981
70256W        W23152   0.709  22.228   8.206
70257W        W23153  22.824   2.662   1.625
70258W        W23154  10.350  27.263   9.698
70259W        W23155   7.334  19.532   8.151
70260W        W23156  16.246  35.049   2.846
70261W        W23157   9.717  17.918   8.882
70262W        W23158   3.722  17.936   8.268
70263W        W23159   0.566   9.715   0.525
70264W        W23160  10.272   9.971   9.673
70265W        W23161  32.896   0.316   1.100
70266W        W23162  31.031  34.836   2.886
70267W        W23163  29.134   7.289   8.841
70268W        W23164   9.830  34.653   9.924
70269W        W23165   4.209  15.703   1.590
70270W        W23166  12.732  20.365   1.988
70271W        W23167   5.954  19.609   0.285
70272W        W23168  26.539   4.523  10.007
70273W        W23169  22.744  10.824   7.559
70274W        W23170  15.604  16.017   3.086
70275W        W23171  19.688  26.733   9.131
70276W        W23172   8.092   7.684   0.802
70277W        W23173  16.724   1.041   1.659
70278W        W23174  14.125  30.208   0.089
70279W        W23175   8.796  21.954  10.136
70280W        W23176   6.439  34.547   0.526
70281W        W23177  25.286  11.337   2.250
70282W        W23178  21.779  20.220   8.431
70283W        W23179  26.949   7.274   7.429
70284W        W23180  31.604  30.741   2.018
70285W        W23181   0.458   8.820   0.716
70286W        W23182  30.102  14.252   9.579
70287W        W23183  28.983  18.268   9.237
70288W        W23184   9.806   3.854   0.699
70289W        W23185  14.410  26.666   8.551
70290W        W23186  21.293  34.452   1.955
70291W        W23187  22.308   7.466   9.462
70292W        W23188   4.733  10.122   8.600
70293W        W23189  33.557  10.211   8.977
70294W        W23190   1.469   8.509   2.800
70295W        W23191   3.836  26.573   2.939
70296W        W23192   8.624  18.061   9.881
70297W        W23193  32.494   4.096   9.941
70298W        W23194   0.945  14.656   0.828
70299W        W23195  18.239  32.387   9.234
70300W        W23196  12.608   7.058   2.355
70301W        W23197   5.420  35.943   0.570
70302W        W23198  26.481  23.304   0.106
70303W        W23199   0.120  24.007   3.115
70304W        W23200  15.920   0.131   1.077
70305W        W23201  24.485  32.001   0.705
70306W        W23202   3.306   8.081   0.321
70307W        W23203  13.737   6.835   8.418
70308W        W23204  17.150   7.201   3.024
70309W        W23205   8.889  12.555   0.618
70310W        W23206  16.117  11.136   8.723
70311W        W23207  12.729  12.312  10.278
70312W        W23208   4.586  20.420   1.772
70313W        W23209   7.064  35.842   0.607
70314W        W23210  19.104  12.128   8.553
70315W        W23211  30.508  29.294   0.613
70316W        W23212   7.292  25.830   2.526
70317W        W23213  26.311  30.247   9.686
70318W        W23214  24.090  27.016   1.342
70319W        W23215  27.891  32.543   2.447
70320W        W23216  30.549  29.039   9.589
70321W        W23217  19.104  22.514   8.426
70322W        W23218  26.477   5.477   8.850
70323W        W23219  19.868   1.687   1.771
70324W        W23220  20.978  26.604   0.471
70325W        W23221  17.802  12.527   2.086
70326W        W23222  27.774   9.491   0.170
70327W        W23223  32.772  11.243   7.827
70328W        W23224  10.302  29.218  10.213
70329W        W23225  30.557  23.298   2.529
70330W        W23226  20.095   2.583   9.574
70331W        W23227  25.935   3.657  10.091
70332W        W23228  18.992  19.275   1.926
70333W        W23229   1.414  28.092   8.600
70334W        W23230  27.967  16.032   9.781
70335W        W23231  32.472  29.162   8.065
70336W        W23232  11.780  22.113   1.728
70337W        W23233  26.063  26.919   3.083
70338W        W23234  35.246  17.418   1.478
70339W        W23235  11.628  11.545   1.769
70340W        W23236  10.428  33.167   0.203
70341W        W23237  21.443   7.805   1.735
70342W        W23238   6.938  21.048   3.289
70343W        W23239   4.420  29.838  10.099
70344W        W23240   1.647   2.139   9.060
70345W        W23241  12.249   5.484   8.878
70346W        W23242  33.834   7.136   9.609
70347W        W23243  19.441   1.509   0.685
70348W        W23244   6.554  10.206   1.071
70349W        W23245   6.602  33.170   1.958
70350W        W23246  25.483  22.660   0.439
70351W        W23247   8.878  17.042   8.197
70352W        W23248   7.030  13.962   2.221
70353W        W23249  20.920  12.885   0.858
70354W        W23250  29.275  29.757   9.886
70355W        W23251  30.856   7.732   0.878
70356W        W23252  21.190  18.945   3.331
70357W        W23253   2.492  31.091   8.307
70358W        W23254   6.724   2.583   0.685
70359W        W23255  17.231   1.982   2.501
70360W        W23256  15.238  10.328   1.435
70361W        W23257  23.096   3.139   0.708
70362W        W23258  33.873  14.493   9.453
70363W        W23259  18.194   3.969   7.955
70364W        W23260   6.482   0.550   0.452
70365W        W23261  31.924   9.383   2.205
70366W        W23262  19.068  30.721   1.365
70367W        W23263  25.134  25.204   2.459
70368W        W23264  13.701  13.701   8.605
70369W        W23265  15.342  25.693  10.068
70370W        W23266   7.031  33.472   8.011
70371W        W23267  34.789   0.411   2.580
70372W        W23268  30.487  10.752   9.293
70373W        W23269   7.706  30.939   8.204
70374W        W23270   1.741  28.890   2.428
70375W        W23271  10.116  19.191   1.848
70376W        W23272   7.610   3.985   0.438
70377W        W23273   8.164   4.339   0.236
70378W        W23274  33.552  23.398   3.740
70379W        W23275  29.677   2.145  10.322
70380W        W23276  27.132   7.068   0.934
70381W        W23277   9.704   7.543   2.351
70382W        W23278  23.379   9.520   8.445
70383W        W23279   4.321  23.059  10.082
70384W        W23280  31.088  24.802   1.012
70385W        W23281   0.961   2.837   3.363
70386W        W23282  11.445  28.907   8.962
70387W        W23283  17.717  24.812   9.693
70388W        W23284   8.461  14.151   0.886
70389W        W23285   5.532   6.949   8.175
70390W        W23286  29.355   9.462   0.145
70391W        W23287  31.139  28.635   7.652
70392W        W23288  22.398  29.824   2.324
70393W        W23289  11.721  31.571   9.647
70394W        W23290   5.981  32.125   2.753
70395W        W23291   9.353  25.722   1.006
70396W        W23292  14.665   6.170  10.285
70397W        W23293  29.197   2.082   3.195
70398W        W23294  33.468   8.895   0.330
70399W        W23295   2.556  23.413   1.121
70400W        W23296  16.263   2.823   7.995
70401W        W23297  25.935  15.871   0.570
70402W        W23298  33.866  11.419   0.806
70403W        W23299  27.031  31.216   0.736
70404W        W23300  10.377  29.774   9.379
70405W        W23301  17.261  35.005   2.903
70406W        W23302  29.438  25.545   8.378
70407W        W23303   8.225  26.800   2.861
70408W        W23304   2.382  26.062   1.764
70409W        W23305  18.647  28.737  10.247
70410W        W23306   4.535   5.232   7.872
70411W        W23307  18.220  21.416   2.175
70412W        W23308  33.955  11.794   0.457
70413W        W23309  34.138   7.945   0.845
70414W        W23310  13.220   2.306   2.034
70415W        W23311  14.287   6.870   2.881
70416W        W23312  20.053  32.556   2.753
70417W        W23313   6.873   0.730   8.021
70418W        W23314   6.203  26.289   7.893
70419W        W23315  16.882  27.959   2.985
70420W        W23316  35.624   3.589   1.576
70421W        W23317   3.866  16.418   1.062
70422W        W23318  21.217  30.366   0.682
70423W        W23319   1.251  22.329   0.300
70424W        W23320  33.124  11.387   9.557
70425W        W23321  10.274   1.302   7.370
70426W        W23322  35.852  34.910   0.753
70427W        W23323  14.472  14.036   8.369
70428W        W23324  30.330  14.851   1.575
70429W        W23325  33.440  12.707   0.817
70430W        W23326  27.595  25.105   9.282
70431W        W23327   0.409  32.516   3.819
70432W        W23328  11.550  14.014   8.502
70433W        W23329  28.117  29.854   2.033
70434W        W23330  34.311   2.692   1.393
70435W        W23331   6.536   6.188   9.280
70436W        W23332   3.821  34.779   7.961
70437W        W23333   8.733  19.814   9.253
70438W        W23334   8.774  21.053   2.598
70439W        W23335  21.776  33.284   0.828
70440W        W23336   5.705  23.057   2.640
70441W        W23337  19.042  34.693   0.400
70442W        W23338   7.191   3.259   1.482
70443W        W23339  19.141  32.464   2.100
70444W        W23340  12.473  30.495   0.181
70445W        W23341  17.208   0.943   0.192
70446W        W23342  31.842  29.591   1.775
70447W        W23343  19.095   0.080   3.842
70448W        W23344  11.263   8.554   1.626
70449W        W23345   1.469  33.286   8.610
70450W        W23346  15.838  18.790  10.278
70451W        W23347  15.436  32.325   1.911
70452W        W23348  29.128  34.958   9.521
70453W        W23349  12.927  21.425   2.907
70454W        W23350  17.791  23.724   7.694
70455W        W23351  23.738  33.957   8.892
70456W        W23352  14.351   2.413   2.078
70457W        W23353  16.292   3.880   9.780
70458W        W23354  21.264  30.555  10.326
70459W        W23355   5.068  12.743   3.691
70460W        W23356   8.608  28.598  10.001
70461W        W23357  17.387  13.954   8.700
70462W        W23358   4.384  28.038   8.431
70463W        W23359  22.000   4.041   8.209
70464W        W23360  34.187  33.403   8.444
70465W        W23361  35.461  30.177   0.426
70466W        W23362  35.978   5.643   9.116
70467W        W23363   4.693  10.926   9.647
70468W        W23364  31.326  14.871   1.714
70469W        W23365  31.284  21.067   2.895
70470W        W23366  30.563   8.913   3.141
70471W        W23367  13.676  34.041   3.133
70472W        W23368  13.987   6.319   7.927
70473W        W23369  24.118  21.026   1.331
70474W        W23370  17.031   2.840   2.709
70475W        W23371   4.463  32.339   2.683
70476W        W23372  18.114  25.655   0.409
70477W        W23373  22.356  17.834   0.674
70478W        W23374   6.779  17.575   1.205
70479W        W23375  28.330  17.719   8.953
70480W        W23376  30.579  17.991   1.124
70481W        W23377  22.180  20.561   2.640
70482W        W23378  13.860  26.489   9.733
70483W        W23379   6.563  15.202   9.838
70484W        W23380   5.751   4.589   1.894
70485W        W23381  33.797   9.195   0.086
70486W        W23382  35.299  28.413   2.490
70487W        W23383  26.418  30.691   0.644
70488W        W23384   0.617  33.759   3.053
70489W        W23385  13.780  28.204   7.806
70490W        W23386   0.359  30.733   9.001
70491W        W23387  35.719  22.269   1.649
70492W        W23388  31.846   2.385   0.811
70493W        W23389   9.714  15.424   0.379
70494W        W23390  22.058  23.822   2.918
70495W        W23391  18.864  23.115   9.021
70496W        W23392  14.848  29.647   2.071
70497W        W23393   4.967  34.659   1.657
70498W        W23394  31.823   7.234   7.512
70499W        W23395  26.622  34.906   8.664
70500W        W23396  15.765  14.467   8.559
70501W        W23397  31.249  34.380   7.910
70502W        W23398   2.100   6.917   0.282
70503W        W23399  22.444  11.745   3.737
70504W        W23400  20.215  13.803   7.914
70505W        W23401  13.852  18.078   9.274
70506W        W23402   1.295  33.079   7.598
70507W        W23403   1.484  23.824   8.248
70508W        W23404  27.648  26.050   0.279
70509W        W23405  22.251  18.528   2.244
70510W        W23406   6.943  21.584   8.373
70511W        W23407  34.733   8.283   2.925
70512W        W23408  29.643   5.447   0.998
70513W        W23409  29.271  34.437   2.062
70514W        W23410  18.036  23.366   1.994
70515W        W23411  33.980  16.314   9.686
70516W        W23412   9.114  11.488   1.022
70517W        W23413  35.250   2.088   8.549
70518W        W23414  16.468  25.016   2.165
70519W        W23415  19.132  10.036   1.405
70520W        W23416  10.577  23.906   0.628
70521W        W23417  23.653  31.633   3.375
70522W        W23418  11.190   8.498   9.495
70523W        W23419  24.033   9.660   2.430
70524W        W23420   7.086  21.736   9.592
70525W        W23421   1.805  19.036   7.880
70526W        W23422  25.028  25.045   0.431
70527W        W23423  12.312  27.198   7.770
70528W        W23424  13.130  13.665  10.138
70529W        W23425  13.877   3.922   1.984
70530W        W23426  28.597   0.621   8.471
70531W        W23427  12.753  30.605   9.319
70532W        W23428  30.649  10.655   9.965
70533W        W23429  22.839  24.449   8.165
70534W        W23430  35.895  23.245   2.887
70535W        W23431   9.323  16.702   1.926
70536W        W23432  20.943  31.267   3.776
70537W        W23433  18.233  27.886   8.928
70538W        W23434  25.155   6.412   3.625
70539W        W23435  32.583  14.602   1.447
70540W        W23436  12.807  17.287   1.383
70541W        W23437  18.023  35.075   7.499
70542W        W23438  11.401  16.371   7.622
70543W        W23439  15.809   4.442   9.096
70544W        W23440  14.497  16.875   8.967
70545W        W23441  23.245  32.767   8.904
70546W        W23442  11.205  33.096   9.502
70547W        W23443   4.778  33.769   0.771
70548W        W23444   0.425   1.066   1.711
70549W        W23445   1.239  15.792   8.468
70550W        W23446  23.092   4.184   0.118
70551W        W23447   8.506   7.637   2.916
70552W        W23448  14.265  28.798   7.342
70553W        W23449  25.558  16.140   3.617
70554W        W23450  20.354  13.501   3.142
70555W        W23451   1.698  31.871   9.090
70556W        W23452  25.967  20.065   1.033
70557W        W23453  32.252   9.382   2.661
70558W        W23454  35.648  32.991   8.055
70559W        W23455  25.823  15.038   1.703
70560W        W23456   0.133  24.783   8.236
70561W        W23457  12.595  31.317   8.189
70562W        W23458   3.324  35.364   0.878
70563W        W23459  14.765  18.715   9.434
70564W        W23460  29.061   8.862   9.677
70565W        W23461  35.754  12.078   0.640
70566W        W23462  11.453   0.154   1.618
70567W        W23463  11.459  25.892   8.295
70568W        W23464  28.768  21.766   9.964
70569W        W23465   2.701  28.240   7.813
70570W        W23466   3.320  20.568   1.480
70571W        W23467  22.417  16.997   8.352
70572W        W23468  20.531  20.833   1.358
70573W        W23469  22.483  18.695   2.697
70574W        W23470   6.389  14.658   0.293
70575W        W23471  23.040  12.660   3.109
70576W        W23472   9.417  26.083   7.049
70577W        W23473  31.521   4.502   1.550
70578W        W23474   2.398  35.670   7.090
70579W        W23475   0.454   9.280  10.001
70580W        W23476  22.971  12.731   2.626
70581W        W23477  26.369  29.375   0.820
70582W        W23478  17.185  25.265   9.449
70583W        W23479  21.671   4.882  10.104
70584W        W23480  11.271  13.679   0.535
70585W        W23481  24.745   6.130   2.679
70586W        W23482  33.394  13.128   8.881
70587W        W23483   7.947  25.908   1.022
70588W        W23484  22.528  12.367   0.089
70589W        W23485   9.635  15.378   2.520
70590W        W23486  33.047  10.095   9.866
70591W        W23487   3.549   8.390   0.668
70592W        W23488   6.243  10.884   0.461
70593W        W23489  34.609  13.539   3.114
70594W        W23490  22.637  25.427   0.807
70595W        W23491   5.621  21.931   7.404
70596W        W23492   1.889  30.057   8.655
70597W        W23493  35.533   7.514   8.942
70598W        W23494  26.572  31.256   2.348
70599W        W23495  11.924   7.327   0.677
70600W        W23496  27.832   1.575   8.375
70601W        W23497  25.852   6.242   9.643
70602W        W23498   3.839  12.793   7.683
70603W        W23499  29.643  10.098   9.544
70604W        W23500  33.320  30.641   8.787
70605W        W23501   8.030  33.250   1.843
70606W        W23502   2.014  26.302   0.152
70607W        W23503  34.860   8.003   1.634
70608W        W23504   4.247   3.123   0.226
70609W        W23505  12.901  18.895   0.085
70610W        W23506  26.862   4.329   7.938
70611W        W23507  17.711  11.486   1.465
70612W        W23508  17.989  29.062   8.879
70613W        W23509  33.066  18.578   9.379
70614W        W23510   4.502  14.180   8.339
70615W        W23511   2.952  17.521   2.047
70616W        W23512   1.072  26.080   2.107
70617W        W23513  17.387   6.460   0.182
70618W        W23514  26.569  24.614   8.424
70619W        W23515  17.160  10.746   2.422
70620W        W23516  23.550  29.443   0.289
70621W        W23517  33.040  28.960   0.269
70622W        W23518   9.694  14.291   1.164
70623W        W23519  23.932  24.362   0.118
70624W        W23520  13.740  19.081   8.677
70625W        W23521  27.289  15.419   1.780
70626W        W23522   2.576  31.158   7.802
70627W        W23523  32.967  26.581   1.671
70628W        W23524  14.140  18.741   2.639
70629W        W23525   1.334  34.267   8.488
70630W        W23526  28.107  21.173   9.776
70631W        W23527   2.360  10.239   2.052
70632W        W23528   3.343  32.181   0.254
70633W        W23529  29.635  10.939   3.723
70634W        W23530  11.368   3.899   0.726
70635W        W23531   4.646   1.363   1.015
70636W        W23532  29.594  20.611  10.220
70637W        W23533   4.126  13.424   2.981
70638W        W23534  29.415  19.189   7.670
70639W        W23535  34.844  13.987   1.703
70640W        W23536  10.668  34.104   1.298
70641W        W23537  26.060  16.878   0.664
70642W        W23538  23.648  12.436   3.946
70643W        W23539   8.434  20.793  10.061
70644W        W23540  17.531   9.429   1.057
70645W        W23541  25.540  35.114   1.290
70646W        W23542  10.998   2.961  10.303
70647W        W23543   9.677  24.239   9.842
70648W        W23544   6.141  26.045   7.434
70649W        W23545   2.133   0.428   1.722
70650W        W23546   0.484  10.691   7.539
70651W        W23547  11.419  21.961   1.169
70652W        W23548  22.926  22.016   9.181
70653W        W23549  10.991  31.330   8.070
70654W        W23550   0.937  20.606   8.970
70655W        W23551  28.696  34.333   8.384
70656W        W23552   4.609   3.436  10.231
70657W        W23553  24.721   0.368  10.231
70658W        W23554   7.924   7.817   7.360
70659W        W23555  29.530  16.699   9.912
70660W        W23556  19.198  30.362   2.519
70661W        W23557   9.856  16.290   3.544
70662W        W23558   6.710   4.440   1.946
70663W        W23559  10.512   1.091   1.243
70664W        W23560  32.779   6.920   8.195
70665W        W23561  16.224  24.855   8.623
70666W        W23562  24.124  22.270   7.734
70667W        W23563  24.470  26.762   8.138
70668W        W23564  19.052  34.901   3.459
70669W        W23565  12.176   1.090   2.011
70670W        W23566   9.866   4.593   3.657
70671W        W23567   5.145  29.904   1.691
70672W        W23568   7.078   5.699   2.310
70673W        W23569   6.033   5.662   2.147
70674W        W23570   9.546   9.152  10.296
70675W        W23571  35.891  16.204   2.575
70676W        W23572   6.486  11.797   1.355
70677W        W23573  19.595  29.854   9.885
70678W        W23574   1.671   4.008   0.074
70679W        W23575  12.699  14.575   0.000
70680W        W23576   6.926  33.846   7.526
70681W        W23577  14.319  10.236   2.652
70682W        W23578  18.853   3.974   0.852
70683W        W23579   3.860  31.624   3.206
70684W        W23580  28.582  30.824   7.224
70685W        W23581   4.526   3.884   8.100
70686W        W23582  26.916   7.759   2.542
70687W        W23583  25.533  21.084   0.224
70688W        W23584  32.990  12.414   1.390
70689W        W23585   2.845  21.192   8.620
70690W        W23586  14.603  14.653   7.580
70691W        W23587  21.844  14.538   0.125
70692W        W23588  34.287  34.536   1.961
70693W        W23589  21.224  22.754   0.310
70694W        W23590  13.957  12.475   8.827
70695W        W23591   6.926  32.847   8.219
70696W        W23592  16.514  31.005   8.943
70697W        W23593  11.716  15.419   2.546
70698W        W23594  11.182  19.058   2.388
70699W        W23595  23.043   3.535   3.369
70700W        W23596  11.936  34.302   2.051
70701W        W23597  27.236   2.887   1.180
70702W        W23598   2.804  23.295   2.506
70703W        W23599  35.225   7.172   0.141
70704W        W23600   1.929  17.023   0.824
70705W        W23601   0.639  23.688   8.884
70706W        W23602   8.306  14.632   1.854
70707W        W23603  32.812   3.467   0.010
70708W        W23604  33.077  29.547   2.340
70709W        W23605   4.190  34.804   8.352
70710W        W23606   2.983  14.360   8.679
70711W        W23607   1.551  12.359   1.079
70712W        W23608   4.998  23.658   9.685
70713W        W23609   7.141  29.490   0.267
70714W        W23610  13.628  11.618   0.129
70715W        W23611  31.928  32.367   1.916
70716W        W23612  17.135  19.560  10.274
70717W        W23613   6.980  31.788   0.210
70718W        W23614   7.996   5.014   2.294
70719W        W23615   4.628   4.369   7.950
70720W        W23616  34.973  23.229   3.087
70721W        W23617  14.364   7.116   3.834
70722W        W23618  22.555   8.911   8.253
70723W        W23619  35.149  10.987   2.672
70724W        W23620  34.187  29.533   0.523
70725W        W23621  16.081  27.885   1.060
70726W        W23622  22.592   8.811   1.382
70727W        W23623  22.182   2.464   9.653
70728W        W23624  13.846   9.838   1.819
70729W        W23625  22.222   4.990   0.413
70730W        W23626   9.056   6.126   0.430
70731W        W23627  31.947   3.614   7.428
70732W        W23628  21.992  26.461   1.902
70733W        W23629  23.503  30.071   7.808
70734W        W23630   3.489  17.398   7.698
70735W        W23631   5.734  33.998   0.143
70736W        W23632   2.493   5.499   1.395
70737W        W23633  34.199  12.463   0.457
70738W        W23634  13.487  34.710   7.773
70739W        W23635   4.754  16.699   0.880
70740W        W23636  24.642  14.986   3.858
70741W        W23637  23.515  25.012   9.102
70742W        W23638  26.838  27.346   3.138
70743W        W23639   5.470  29.141   7.851
70744W        W23640  25.969  31.871  10.337
70745W        W23641   6.396  27.310   1.261
70746W        W23642  28.021  29.735   0.309
70747W        W23643  31.775  27.141  10.005
70748W        W23644   8.642  33.469   2.743
70749W        W23645   1.215  15.215   9.583
70750W        W23646  29.057  13.450   3.419
70751W        W23647  10.427  16.701   1.536
70752W        W23648   0.244  20.703   9.606
70753W        W23649  15.798  22.710   3.858
70754W        W23650  30.623   6.408   0.659
70755W        W23651  20.416   0.749   9.696
70756W        W23652  15.678  17.722   2.639
70757W        W23653  21.453   8.326   8.390
70758W        W23654  10.017  34.658   1.586
70759W        W23655   2.911   7.929   1.569
70760W        W23656   2.028  32.135   2.726
70761W        W23657  18.223  30.730   8.453
70762W        W23658  23.541   2.437   2.828
70763W        W23659   2.335   6.390   8.552
70764W        W23660  18.355  29.072   9.206
70765W        W23661   1.952  34.142   7.649
70766W        W23662   1.433  11.554   1.174
70767W        W23663  23.331  22.711   1.604
70768W        W23664  33.770  15.968   8.732
70769W        W23665  31.382  31.035   0.481
70770W        W23666   5.883  12.520   1.341
70771W        W23667   6.443  15.447   8.115
70772W        W23668  20.526  16.418   9.535
70773W        W23669  21.069  34.854   9.613
70774W        W23670  31.615   6.955  10.239
70775W        W23671  27.391  22.114   3.335
70776W        W23672  31.857  25.295   9.517
70777W        W23673  24.573  14.075   0.317
70778W        W23674   9.012  13.632   8.745
70779W        W23675  30.693  13.969   3.560
70780W        W23676   3.634  10.671   1.997
70781W        W23677   8.567  14.780   2.874
70782W        W23678  11.938   0.511   0.770
70783W        W23679  21.581  10.542   1.613
70784W        W23680  29.941   1.020   1.113
70785W        W23681  12.367  35.612   2.242
70786W        W23682   4.094  18.996   9.768
70787W        W23683  12.438  30.232   9.366
70788W        W23684  30.228  28.502   1.779
70789W        W23685  30.198  21.663   8.401
70790W        W23686   9.724   0.476   2.459
70791W        W23687   8.735  10.715   1.030
70792W        W23688  31.552  22.167   1.821
70793W        W23689  22.110   4.298   0.097
70794W        W23690   2.241  21.394   2.416
70795W        W23691  34.920  11.320   8.437
70796W        W23692  21.703  20.437   0.306
70797W        W23693   3.998   9.782   1.623
70798W        W23694  16.389  13.028   9.858
70799W        W23695  29.686  16.724   8.807
70800W        W23696  33.444  19.830   7.504
70801W        W23697   8.323  16.241   8.453
70802W        W23698  31.504  15.924   7.300
70803W        W23699  23.618  26.926   0.141
70804W        W23700   9.149   2.693   0.702
70805W        W23701  11.704  31.769   7.992
70806W        W23702  27.611   9.043   9.835
70807W        W23703   5.589  13.233  10.120
70808W        W23704  22.463  23.031   1.967
70809W        W23705  13.712   0.976   0.178
70810W        W23706  32.182  28.522   0.951
70811W        W23707  34.620  29.324   7.806
70812W        W23708  12.947   5.750   8.521
70813W        W23709  18.716  19.199   4.058
70814W        W23710   9.994  35.886  10.311
70815W        W23711  18.039  26.414   9.820
70816W        W23712   7.241  21.640   9.124
70817W        W23713  20.358  28.167   2.157
70818W        W23714  18.761  32.539  10.163
70819W        W23715  33.591   4.943   9.601
70820W        W23716  29.786  34.689   2.087
70821W        W23717  20.391   2.374   1.847
70822W        W23718  32.802  27.879   0.777
70823W        W23719   9.999  22.554   9.394
70824W        W23720  32.989  15.488   0.216
70825W        W23721  35.792   3.515   0.275
70826W        W23722  18.249  27.740  10.124
70827W        W23723   3.132  21.892   0.235
70828W        W23724   4.009  18.155   7.863
70829W        W23725  20.239  16.276  10.327
70830W        W23726  28.146   4.230   9.891
70831W        W23727   6.137  30.917   1.939
70832W        W23728   8.413  23.621  10.224
70833W        W23729  15.775  11.946   9.400
70834W        W23730  26.477  20.218   7.658
70835W        W23731  19.708  17.927   3.502
70836W        W23732  14.464   9.194   1.317
70837W        W23733  28.326   4.166   9.450
70838W        W23734   0.724  32.830   9.847
70839W        W23735  20.862  32.650   9.064
70840W        W23736  30.479  16.926   0.885
70841W        W23737   3.556  32.571   3.525
70842W        W23738   2.941  19.007   0.020
70843W        W23739  25.694   5.219   7.693
70844W        W23740   1.300  33.811   1.659
70845W        W23741  23.558  20.183   9.001
70846W        W23742   2.082  29.527   8.630
70847W        W23743   1.561   6.863   9.769
70848W        W23744  30.202  35.807   8.689
70849W        W23745  14.634   2.241   0.148
70850W        W23746  34.312  24.691   9.412
70851W        W23747  19.902   8.259   0.810
70852W        W23748  11.115  34.513   2.562
70853W        W23749   7.601  27.707   2.694
70854W        W23750   1.317   5.462   2.854
70855W        W23751  11.327  35.241   8.671
70856W        W23752  26.659  14.729   9.804
70857W        W23753  29.987  23.870   9.627
70858W        W23754  16.029   1.089   8.450
70859W        W23755  29.250  16.798   9.034
70860W        W23756  11.305  16.164   0.440
70861W        W23757  28.645   6.686   1.686
70862W        W23758  29.890   0.712   7.823
70863W        W23759  12.128   6.863   2.392
70864W        W23760  12.426  32.074   3.712
70865W        W23761  10.484   2.742   8.369
70866W        W23762   6.882  13.954   9.164
70867W        W23763   9.361  19.462   1.414
70868W        W23764  18.978  23.092  10.031
70869W        W23765  34.129   4.411   2.239
70870W        W23766  32.240  17.647   9.538
70871W        W23767  21.785   0.798   2.427
70872W        W23768  22.791  16.924   2.113
70873W        W23769  17.636  26.764   1.702
70874W        W23770  15.502  27.296   8.697
70875W        W23771  30.427  13.445   0.108
70876W        W23772  18.858   8.318   0.936
70877W        W23773  24.744   8.746   0.621
70878W        W23774  25.547  14.594   2.822
70879W        W23775  23.076   1.308   0.217
70880W        W23776   1.578  23.058   2.012
70881W        W23777   8.496   3.349   7.914
70882W        W23778  15.490  18.819   8.414
70883W        W23779  13.283  28.792   0.917
70884W        W23780  34.606   4.066   2.290
70885W        W23781   9.118   5.660   1.852
70886W        W23782  18.502   8.941   1.491
70887W        W23783   8.521  28.924   7.921
70888W        W23784  10.416  26.424   8.070
70889W        W23785   5.311  24.161   1.476
70890W        W23786  33.009  28.721   1.676
70891W        W23787  12.738  22.427   1.351
70892W        W23788   2.652  23.806   9.386
70893W        W23789  24.216  10.246   8.115
70894W        W23790  11.906   5.118   8.661
70895W        W23791  14.008  14.725   1.157
70896W        W23792  18.575   8.935   3.505
70897W        W23793  20.650  14.438   8.304
70898W        W23794  17.616  28.655   2.952
70899W        W23795   1.262   2.347   9.316
70900W        W23796  21.472  19.293   0.824
70901W        W23797  26.641  21.646   1.112
70902W        W23798  18.488   5.354   1.998
70903W        W23799  19.498   9.827   3.298
70904W        W23800  15.044  12.136   1.190
70905W        W23801  30.668  17.412   0.273
70906W        W23802  35.294  26.210   2.794
70907W        W23803  32.437   5.327   0.077
70908W        W23804  12.488  33.393   8.622
70909W        W23805  16.430  24.009   1.063
70910W        W23806  32.979  31.586   1.164
70911W        W23807  21.640   6.748   1.064
70912W        W23808  20.983  32.307   2.494
70913W        W23809   6.214   2.599   8.276
70914W        W23810  31.462  18.595   3.096
70915W        W23811  32.147  20.184   9.190
70916W        W23812   3.686  22.442  10.094
70917W        W23813  28.909   5.454   7.845
70918W        W23814  33.604  29.311   8.110
70919W        W23815  29.635  10.665   1.950
70920W        W23816   0.524   5.523   1.560
70921W        W23817  34.414  34.457   0.035
70922W        W23818  31.450   9.758   8.131
70923W        W23819  19.776  27.928   1.275
70924W        W23820  30.521  12.039   9.301
70925W        W23821   2.306   4.585  10.129
70926W        W23822  28.546  23.621   1.021
70927W        W23823  30.102   9.554   9.345
70928W        W23824  31.736  18.286   7.681
70929W        W23825  19.864  15.762   9.011
70930W        W23826  27.591  11.659   0.503
70931W        W23827  23.409  12.651   8.391
70932W        W23828   6.098   3.142   8.576
70933W        W23829   4.756   5.965   3.007
70934W        W23830  12.630   0.268   9.293
70935W        W23831  26.731  17.941   0.414
70936W        W23832  34.555  20.758   9.542
70937W        W23833  21.020  14.727   9.826
70938W        W23834  23.086  23.209  10.202
70939W        W23835  30.543   7.270   7.512
70940W        W23836  35.766   0.522   6.920
70941W        W23837  33.662  14.437   0.422
70942W        W23838   4.748  21.926   8.235
70943W        W23839  23.391   5.311   3.199
70944W        W23840   5.987   4.233   1.642
70945W        W23841  34.643  26.522  10.163
70946W        W23842  14.786   4.806   1.020
70947W        W23843  13.049  23.371   0.010
70948W        W23844  28.447   9.022   1.779
70949W        W23845  28.029  26.703   9.701
70950W        W23846   3.680  17.113   7.271
70951W        W23847   8.750   2.021   9.166
70952W        W23848  32.600  11.926   9.180
70953W        W23849  15.236  11.574   8.853
70954W        W23850  16.899   0.986   7.391
70955W        W23851   5.368   8.753   0.528
70956W        W23852  33.546  24.854   3.696
70957W        W23853  18.510  35.722  10.013
70958W        W23854   9.147  10.782   9.591
70959W        W23855  27.935  31.050   9.315
70960W        W23856  22.546   2.330   1.971
70961W        W23857   4.107  31.286   9.057
70962W        W23858   3.469  23.986  10.155
70963W        W23859  15.359   6.720   9.057
70964W        W23860   9.898  16.114   0.618
70965W        W23861  33.904  10.864   0.679
70966W        W23862   8.092  34.159  10.183
70967W        W23863  23.948  27.521   7.830
70968W        W23864   0.400  20.220  10.125
70969W        W23865  10.061  33.366   9.624
70970W        W23866   2.181  28.274   1.721
70971W        W23867   9.013  10.435   8.153
70972W        W23868  25.196   9.562   2.985
70973W        W23869   3.721  33.413  10.305
70974W        W23870  27.092  35.078   2.100
70975W        W23871  17.901  21.562   9.003
70976W        W23872   2.507   7.642   0.375
70977W        W23873   7.725  25.433   0.712
70978W        W23874   3.559  26.155   2.981
70979W        W23875  18.485  33.212   8.670
70980W        W23876   4.600   4.602   3.403
70981W        W23877  24.927  19.861   3.274
70982W        W23878  29.698  24.729   7.929
70983W        W23879   1.191   7.892   8.555
70984W        W23880  23.676  31.585   2.879
70985W        W23881   1.472  10.575   1.151
70986W        W23882  14.264  30.932   1.740
70987W        W23883  11.938   6.075   9.154
70988W        W23884   8.800  35.657   7.519
70989W        W23885   8.830  21.656   1.704
70990W        W23886   7.483   6.943   3.333
70991W        W23887  20.852  22.564   0.713
70992W        W23888   4.270  19.863   9.696
70993W        W23889  26.456   7.992   1.811
70994W        W23890  11.010  35.580   8.544
70995W        W23891  22.557   4.680   0.790
70996W        W23892   4.362   3.422   1.850
70997W        W23893  15.420  32.865   1.743
70998W        W23894   7.502  17.965   1.035
70999W        W23895   8.683   1.796   8.723
71000W        W23896  27.889   6.020   8.477
71001W        W23897   6.348   9.018   8.659
71002W        W23898  32.664  22.062   9.793
71003W        W23899  15.584  18.381   8.057
71004W        W23900  19.312  27.690   2.749
71005W        W23901  21.591   4.039   1.753
71006W        W23902  11.293   2.370   8.011
71007W        W23903   1.249  18.528   0.161
71008W        W23904  17.224  18.324  10.032
71009W        W23905  14.858   9.114   3.166
71010W        W23906  13.784   9.329   9.107
71011W        W23907   8.408  33.877   0.800
71012W        W23908  20.882   3.730   2.572
71013W        W23909  20.192  19.621   8.425
71014W        W23910  25.051  15.232   3.528
71015W        W23911  20.346  22.062   0.099
71016W        W23912  17.869  25.310   0.680
71017W        W23913  15.459   8.243  10.112
71018W        W23914  15.574  23.159   8.331
71019W        W23915   4.980  23.619   8.834
71020W        W23916  18.662   0.538   9.984
71021W        W23917  35.070   6.721   7.295
71022W        W23918   3.418  16.431   8.639
71023W        W23919  14.936  32.635   1.842
71024W        W23920  26.623  13.228   0.204
71025W        W23921  26.982   5.703   2.417
71026W        W23922   1.220  21.488   8.646
71027W        W23923  28.368  24.882   7.136
71028W        W23924  24.863  35.819   0.300
71029W        W23925  16.477   2.031   0.496
71030W        W23926   1.787  28.486   7.018
71031W        W23927  33.498  20.812   8.947
71032W        W23928  13.635  28.794   2.416
71033W        W23929  18.982  32.429   8.677
71034W        W23930  17.252  33.380   7.996
71035W        W23931  10.915  29.041   3.360
71036W        W23932  33.755   0.186   2.714
71037W        W23933   5.743  12.408   3.077
71038W        W23934  33.876  12.724   8.312
71039W        W23935   9.089  15.685   2.701
71040W        W23936  22.040   5.012   9.771
71041W        W23937  29.717   6.519   2.888
71042W        W23938  16.574   0.224   7.113
71043W        W23939  17.974   8.984   1.767
71044W        W23940  26.006  28.299  10.057
71045W        W23941  21.357   4.849   9.694
71046W        W23942  14.397  34.994   8.147
71047W        W23943  11.458  16.042   9.371
71048W        W23944   5.363  22.840   1.160
71049W        W23945   7.216  14.501   3.020
71050W        W23946   4.325  19.864   2.384
71051W        W23947  34.141  20.924   8.164
71052W        W23948  34.031   7.060   8.251
71053W        W23949  19.560  32.789   1.467
71054W        W23950  16.405  34.127   1.104
71055W        W23951  30.405  34.894   1.460
71056W        W23952  29.347   7.598   0.419
71057W        W23953  29.388   4.042   7.456
71058W        W23954  21.225  10.923   4.102
71059W        W23955  35.649   4.227   2.042
71060W        W23956  34.729  34.835   7.946
71061W        W23957  27.344   3.724   0.574
71062W        W23958  12.184  30.020   2.108
71063W        W23959   7.674  28.544   0.278
71064W        W23960  27.111  13.670   1.310
71065W        W23961  34.537  18.901   2.831
71066W        W23962  11.285   0.856   0.717
71067W        W23963  15.854   2.434   2.426
71068W        W23964  27.280  34.472   8.104
71069W        W23965  17.481   2.898   7.890
71070W        W23966  21.799   9.106   0.355
71071W        W23967  13.387   9.821   2.008
71072W        W23968  21.964  35.235   2.889
71073W        W23969   8.630  11.674   1.082
71074W        W23970  14.319  11.728   8.055
71075W        W23971  13.043   4.069   1.954
71076W        W23972  32.178  29.566   3.262
71077W        W23973  25.924   2.029   8.152
71078W        W23974  26.776  21.145   0.370
71079W        W23975  35.237  27.222   1.038
71080W        W23976   5.760   2.277   0.104
71081W        W23977  17.030  34.716   1.566
71082W        W23978  33.467  23.439   8.661
71083W        W23979   3.603  24.879  10.295
71084W        W23980  34.526   5.062   0.913
71085W        W23981   4.725   7.372   8.010
71086W        W23982  27.790   2.099   1.492
71087W        W23983  23.141  23.738   7.440
71088W        W23984  16.057  18.110   8.123
71089W        W23985  12.259  19.466   9.971
71090W        W23986  18.851  15.785   9.853
71091W        W23987   9.060  26.824   0.825
71092W        W23988  32.234   7.967   8.088
71093W        W23989   5.995  26.938   0.604
71094W        W23990   8.873   2.209   7.923
71095W        W23991  27.961   4.516   8.615
71096W        W23992  17.183  27.908   3.541
71097W        W23993  18.853  13.766   9.075
71098W        W23994  29.722   5.035   7.332
71099W        W23995  15.966  17.972   9.789
71100W        W23996   4.085   8.379   0.965
71101W        W23997  12.369   8.086   1.456
71102W        W23998   6.195  34.388   0.074
71103W        W23999  29.722  34.420   8.427
71104W        W24000  27.204  35.692   3.643
71105W        W24001  34.687   1.763   2.559
71106W        W24002  33.803  19.349   8.324
71107W        W24003   7.731  26.641   9.572
71108W        W24004  23.434  19.071   2.877
71109W        W24005  13.604  11.393   9.338
71110W        W24006  24.364  30.781   2.550
71111W        W24007  14.674  33.659   2.066
71112W        W24008  31.922   9.096   3.456
71113W        W24009   1.606   6.540   0.337
71114W        W24010  13.536  24.430   8.485
71115W        W24011  20.157  23.426   9.752
71116W        W24012  33.029  23.899   2.518
71117W        W24013  19.658   5.418   0.848
71118W        W24014  35.867   0.114   0.353
71119W        W24015  34.647   4.554   0.128
71120W        W24016  29.354  22.202   1.969
71121W        W24017   1.821  22.871   8.792
71122W        W24018  16.103  22.425   9.579
71123W        W24019  30.321  10.176   3.122
71124W        W24020  27.829  11.106   1.277
71125W        W24021   9.775   6.727   1.048
71126W        W24022   2.612  35.846   9.334
71127W        W24023  10.634  29.856   8.204
71128W        W24024  16.610  12.617   1.167
71129W        W24025  22.844  15.631   2.495
71130W        W24026  17.674  13.854   3.224
71131W        W24027  23.463  16.665   8.825
71132W        W24028  33.404  13.060   1.439
71133W        W24029  18.325   6.777   9.601
71134W        W24030   8.055   8.707   9.907
71135W        W24031  21.136  26.381   2.314
71136W        W24032  13.433   2.428   1.170
71137W        W24033  25.173   0.644   0.133
71138W        W24034  12.855   4.641   0.640
71139W        W24035  19.122   9.477   3.067
71140W        W24036  24.432  31.230   8.794
71141W        W24037  24.338   1.099   8.374
71142W        W24038  20.347  21.369   8.606
71143W        W24039  24.361   3.103   8.801
71144W        W24040  18.050  23.583   8.168
71145W        W24041   3.066   0.113   0.439
71146W        W24042  17.763   4.823   8.935
71147W        W24043   3.675  23.119   8.230
71148W        W24044  26.914  17.821  10.227
71149W        W24045  20.549  10.389   2.423
71150W        W24046  35.818  21.987   8.082
71151W        W24047  15.854  13.863   1.228
71152W        W24048  18.809   5.219   2.716
71153W        W24049  28.706   5.722   8.834
71154W        W24050  10.813   0.531   6.698
71155W        W24051  33.490  29.185   0.111
71156W        W24052   1.776  25.872   0.526
71157W        W24053  33.160   7.783   7.783
71158W        W24054  28.486  29.991   1.172
71159W        W24055   3.589  10.588   2.628
71160W        W24056  30.734   5.693   2.211
71161W        W24057  15.028  35.262   7.737
71162W        W24058   0.137  24.077   9.386
71163W        W24059  31.934   6.350   1.891
71164W        W24060   0.326  25.735   9.729
71165W        W24061  13.837  13.901   9.024
71166W        W24062  27.893  27.162   0.682
71167W        W24063   1.509  24.582  10.251
71168W        W24064   9.404  23.160   2.967
71169W        W24065  31.179  30.297  10.226
71170W        W24066  13.136  33.707   1.018
71171W        W24067  15.278   2.439   3.227
71172W        W24068  18.772   0.365   1.060
71173W        W24069  25.152  17.274   0.728
71174W        W24070  10.449   9.455   1.575
71175W        W24071   2.561  19.793   8.874
71176W        W24072   2.542  19.733   0.477
71177W        W24073   4.546  22.600   8.844
71178W        W24074   1.168   9.646  10.320
71179W        W24075  27.381   8.847  10.231
71180W        W24076   3.091   6.109   9.962
71181W        W24077  18.396  20.687  10.071
71182W        W24078  21.333   2.501   1.370
71183W        W24079  22.041   4.544   8.228
71184W        W24080  12.635  28.437   9.948
71185W        W24081   4.993  18.223  10.281
71186W        W24082  20.282   4.887   1.612
71187W        W24083  21.735   5.806   8.626
71188W        W24084  19.373   7.072   2.516
71189W        W24085  14.207   0.772   0.162
71190W        W24086  14.904  25.259   1.459
71191W        W24087   3.676  24.415  10.308
71192W        W24088  12.963  29.014   7.902
71193W        W24089  32.392  18.099   9.458
71194W        W24090   6.594  22.836   0.551
71195W        W24091  14.435   1.132   1.557
71196W        W24092  34.750  23.963   9.616
71197W        W24093  35.570  19.965   8.922
71198W        W24094   3.353  35.677   9.764
71199W        W24095  32.450  22.824   3.510
71200W        W24096   4.041  20.937   2.996
71201W        W24097  19.907   5.685   8.237
71202W        W24098  21.678   9.200   8.964
71203W        W24099  11.760  21.627   2.760
71204W        W24100  10.824  21.515   8.539
71205W        W24101   8.286  29.867   2.352
71206W        W24102   7.834  11.351   1.591
71207W        W24103  21.131   3.610   0.527
71208W        W24104  16.411   9.633   9.412
71209W        W24105  35.832  26.599   2.224
71210W        W24106  28.039   0.435   0.669
71211W        W24107  17.193  13.806   0.770
71212W        W24108  32.932  30.380   2.967
71213W        W24109  30.589  34.530   2.131
71214W        W24110  13.848   6.240   7.478
71215W        W24111  30.112  35.022   3.234
71216W        W24112   2.336  26.884   9.825
71217W        W24113  24.649  16.600   3.038
71218W        W24114  25.615   0.233   9.515
71219W        W24115  34.489   9.354   1.875
71220W        W24116  15.997   9.091   9.661
71221W        W24117  23.720   7.033   1.236
71222W        W24118  14.452   0.470   3.038
71223W        W24119  26.153  17.040   8.080
71224W        W24120  10.992   2.017   9.983
71225W        W24121   2.738  20.814   0.035
71226W        W24122  12.534  16.467   8.981
71227W        W24123  15.168  20.546   3.173
71228W        W24124   2.977  10.853   8.632
71229W        W24125   4.513  16.382   1.723
71230W        W24126  31.949  18.873   8.845
71231W        W24127   1.566   3.079   1.637
71232W        W24128  32.887   6.397   0.993
71233W        W24129   6.028  20.982   0.902
71234W        W24130   5.110   3.508   8.330
71235W        W24131  24.677  16.749   9.978
71236W        W24132  16.004  13.212   1.891
71237W        W24133  33.159   0.983   9.836
71238W        W24134  14.552  19.450   0.155
71239W        W24135  23.860   4.765   7.333
71240W        W24136  10.860  26.524   2.285
71241W        W24137  27.730  23.323   1.695
71242W        W24138  26.922   8.087   9.063
71243W        W24139  33.577   5.012   0.497
71244W        W24140   6.227  15.508   8.598
71245W        W24141  17.753   8.004   8.132
71246W        W24142  29.779  27.706   2.473
71247W        W24143  19.339   2.093   2.417
71248W        W24144  31.838  21.634   8.650
71249W        W24145  17.389  29.552   9.368
71250W        W24146  13.712  34.879   2.860
71251W        W24147  16.271  26.848   8.664
71252W        W24148  28.838  35.980   0.032
71253W        W24149   6.229  30.308   7.518
71254W        W24150   9.330   5.020   9.885
71255W        W24151  21.243  25.103   9.964
71256W        W24152   3.769  23.119   8.778
71257W        W24153   9.740  21.018   0.064
71258W        W24154  28.243   0.315   1.236
71259W        W24155  22.076  22.707   7.449
71260W        W24156  25.891  12.678   9.071
71261W        W24157   8.925  22.049   1.284
71262W        W24158  31.034  11.756   8.239
71263W        W24159  33.623  33.256   2.621
71264W        W24160  34.241  18.719   8.360
71265W        W24161  20.487  34.595   8.809
71266W        W24162  30.423  35.815   2.563
71267W        W24163  32.872   3.086   2.178
71268W        W24164  15.742   0.139   9.953
71269W        W24165  11.869  24.218   1.316
71270W        W24166  34.437  35.707   0.112
71271W        W24167  14.013  20.234   0.209
71272W        W24168   2.930  23.356   9.646
71273W        W24169  30.640  16.230   1.799
71274W        W24170   6.950  26.030   0.617
71275W        W24171  14.731   8.463   1.900
71276W        W24172  29.257  14.974   0.928
71277W        W24173  28.550   4.584   9.624
71278W        W24174  21.790   8.611   1.050
71279W        W24175  33.620  28.851   8.732
71280W        W24176  32.802  31.872   2.051
71281W        W24177  25.492  16.959  10.009
71282W        W24178  35.676   7.693  10.252
71283W        W24179  26.808   5.243   8.528
71284W        W24180   5.110  18.345   9.485
71285W        W24181  26.951  17.089   9.719
71286W        W24182  31.512  28.400   2.664
71287W        W24183  34.696   1.175   8.674
71288W        W24184  20.788  10.584   1.017
71289W        W24185   2.673  29.240   7.763
71290W        W24186  15.159  22.974   1.777
71291W        W24187  19.623  31.524   2.027
71292W        W24188  16.687  17.947   1.811
71293W        W24189  22.325  12.198   7.198
71294W        W24190   2.866   0.164   8.450
71295W        W24191  34.962  19.270   9.378
71296W        W24192  15.458  14.418   1.924
71297W        W24193  19.510  13.890   1.651
71298W        W24194  22.844   5.104   2.429
71299W        W24195  25.871  26.488   9.220
71300W        W24196  16.742  30.199   9.914
71301W        W24197  34.015  33.624   2.816
71302W        W24198  14.550  30.491   9.764
71303W        W24199   4.782  15.040   9.174
71304W        W24200  26.304  20.266   8.380
71305W        W24201  15.766   7.942   0.249
71306W        W24202  10.567  33.906   9.037
71307W        W24203   6.450   1.921   7.533
71308W        W24204   1.152  29.706   2.272
71309W        W24205   0.125   4.458   8.230
71310W        W24206  33.442  16.719   3.641
71311W        W24207  33.978   6.777   8.735
71312W        W24208   5.644  35.667   9.774
71313W        W24209   9.994  20.260   8.984
71314W        W24210  11.603  14.922   1.250
71315W        W24211  13.758  27.516   8.541
71316W        W24212  23.359  25.362   8.218
71317W        W24213  29.401   0.738   7.811
71318W        W24214  32.209  30.616   8.210
71319W        W24215  15.615  26.177   9.040
71320W        W24216   3.727  33.322   7.593
71321W        W24217   4.677   7.251   2.716
71322W        W24218  12.453  22.701   9.814
71323W        W24219  29.302  33.669   8.918
71324W        W24220   8.485  29.449   7.996
71325W        W24221   4.602  10.588   9.310
71326W        W24222  28.091  25.253   9.391
71327W        W24223   0.162  10.379   8.678
71328W        W24224  15.924  28.518   0.654
71329W        W24225  19.392   7.198   3.223
71330W        W24226  34.658  22.775   3.774
71331W        W24227  17.498  15.523   1.699
71332W        W24228  26.145   5.511   9.687
71333W        W24229   4.817  32.345   8.932
71334W        W24230   8.365  21.912   1.985
71335W        W24231  21.211  19.582   9.821
71336W        W24232   9.803  24.789  10.101
71337W        W24233  18.569   5.619   2.399
71338W        W24234   1.757  26.252   2.888
71339W        W24235  18.343  20.180   2.648
71340W        W24236  35.488   1.608   0.664
71341W        W24237  32.481  30.793   9.504
71342W        W24238  20.106  13.064   4.120
71343W        W24239  19.094   9.159   1.187
71344W        W24240  16.092  22.945   1.680
71345W        W24241  20.827  18.076   1.265
71346W        W24242  21.878   8.148   2.232
71347W        W24243   9.956  25.658   0.048
71348W        W24244  24.347  15.992   9.090
71349W        W24245  35.747  30.421  10.199
71350W        W24246  29.685  34.069   8.129
71351W        W24247   8.983  17.290   3.746
71352W        W24248  31.601  16.591   3.332
71353W        W24249  29.166   1.666   7.979
71354W        W24250  20.024  32.720   2.248
71355W        W24251  22.538  32.848   0.421
71356W        W24252  14.595   2.587   9.304
71357W        W24253  24.785   6.582   9.619
71358W        W24254  25.732  10.141   1.725
71359W        W24255   9.959   5.390   0.114
71360W        W24256  28.164  26.797  10.261
71361W        W24257  30.829   8.141   8.449
71362W        W24258  35.924  20.981   0.168
71363W        W24259  11.161  15.274   2.922
71364W        W24260   7.251   3.921   9.763
71365W        W24261   2.888   0.401  10.004
71366W        W24262  27.960  31.724   8.473
71367W        W24263   2.391  26.302   3.906
71368W        W24264  13.053  24.840   8.067
71369W        W24265   3.826  32.963   8.820
71370W        W24266  27.886   3.437   9.341
71371W        W24267  16.367   9.327   2.409
71372W        W24268  25.578  34.613   0.903
71373W        W24269  17.046  24.261   2.451
71374W        W24270  28.259  24.106   2.585
71375W        W24271   7.264  13.384   7.992
71376W        W24272  31.818   3.943   3.296
71377W        W24273  23.229  34.100   2.886
71378W        W24274   3.311  13.634   9.051
71379W        W24275  26.478   2.112   9.304
71380W        W24276  22.816  29.872   0.348
71381W        W24277  10.344  13.838   1.807
71382W        W24278  20.888  20.297   3.454
71383W        W24279   9.196  22.601   9.693
71384W        W24280  13.452  34.168   3.977
71385W        W24281  34.126   0.931   9.340
71386W        W24282  28.399  28.550   0.759
71387W        W24283   7.997  26.765   2.048
71388W        W24284  25.058   0.910   9.599
71389W        W24285   7.102  32.650   8.779
71390W        W24286  14.082  11.569   7.635
71391W        W24287  20.936  16.196   9.799
71392W        W24288  10.230   1.386   0.122
71393W        W24289  14.896  24.229   2.821
71394W        W24290  26.346   7.139   2.992
71395W        W24291   5.780   8.180   9.495
71396W        W24292   7.938  29.689   3.117
71397W        W24293  33.934  20.532   2.193
71398W        W24294  32.077   7.231   1.411
71399W        W24295  17.621  23.774   9.697
71400W        W24296  27.418   1.034   0.474
71401W        W24297  35.588  28.325   8.779
71402W        W24298  17.697  12.330  10.256
71403W        W24299   4.501   5.119   0.386
71404W        W24300  15.770   9.170   7.982
71405W        W24301  32.879  14.852   7.858
71406W        W24302  27.437  32.288   0.174
71407W        W24303   4.384   1.388   0.553
71408W        W24304  18.784  17.836  10.261
71409W        W24305  14.735   7.449   2.047
71410W        W24306  14.348  17.054   0.268
71411W        W24307  18.669  24.128   8.833
71412W        W24308   8.664   0.856   1.956
71413W        W24309  18.247  31.886  10.155
71414W        W24310   7.603  22.124   8.368
71415W        W24311   3.462   7.938   8.421
71416W        W24312  19.561  13.763   0.059
71417W        W24313  26.511  34.485   8.910
71418W        W24314  23.220  13.859   7.818
71419W        W24315  35.156   7.941   9.729
71420W        W24316   0.672  10.052   1.410
71421W        W24317  32.350   2.151   0.928
71422W        W24318  18.093  32.807   0.617
71423W        W24319  19.227  25.976   8.579
71424W        W24320  31.012  29.009   3.512
71425W        W24321  17.895  23.668   2.408
71426W        W24322  27.377  20.554   8.071
71427W        W24323   8.172  26.307   1.951
71428W        W24324   8.586   4.568   0.088
71429W        W24325  26.201  16.852   2.941
71430W        W24326  20.110   1.505   2.410
71431W        W24327   1.675  35.810   9.048
71432W        W24328  20.978  21.127   2.856
71433W        W24329  27.853   3.113   2.430
71434W        W24330  33.156  24.849   2.629
71435W        W24331  11.929   1.814   1.071
71436W        W24332   1.572   2.386   1.086
71437W        W24333   1.873  33.335   0.558
71438W        W24334   6.184  11.140   0.877
71439W        W24335  13.937  28.816   3.328
71440W        W24336  34.396  26.657   1.881
71441W        W24337  11.750   5.793   7.930
71442W        W24338   4.601  26.968   3.200
71443W        W24339  34.566  10.949   1.316
71444W        W24340  26.935  11.651   3.316
71445W        W24341  21.287  15.311   3.106
71446W        W24342  22.784   2.829   2.751
71447W        W24343   7.092   1.099   9.247
71448W        W24344  12.476  25.845   0.425
71449W        W24345  17.721   4.274   0.609
71450W        W24346  12.633  18.147   9.353
71451W        W24347   1.004  24.524   1.924
71452W        W24348  14.195   0.081   0.543
71453W        W24349   8.358  34.178   2.108
71454W        W24350  13.133  31.156   1.836
71455W        W24351   8.825  28.587   8.392
71456W        W24352  30.133   4.161   2.640
71457W        W24353  22.757  31.109   2.679
71458W        W24354  27.458  31.319   2.661
71459W        W24355   7.471  34.538   0.927
71460W        W24356  10.927  23.710   7.272
71461W        W24357  25.296   2.528   1.328
71462W        W24358   8.673  10.137   3.434
71463W        W24359   8.532  24.896   1.743
71464W        W24360  26.189  20.508   0.784
71465W        W24361  26.601   9.008   0.476
71466W        W24362  33.328  28.410   9.777
71467W        W24363   2.373   8.135  10.289
71468W        W24364  33.975  23.716   1.401
71469W        W24365   3.234  31.472   1.780
71470W        W24366  15.590  31.976   1.580
71471W        W24367  35.548   0.139   3.203
71472W        W24368  17.329  20.179   1.207
71473W        W24369  19.581  35.403   8.185
71474W        W24370  30.537  21.803   8.786
71475W        W24371  21.005  15.970   1.301
71476W        W24372  30.808  17.465   7.992
71477W        W24373  28.770   1.301  10.041
71478W        W24374  33.299  33.016   2.207
71479W        W24375  23.548  15.162   9.805
71480W        W24376   6.631  25.927   7.863
71481W        W24377  27.622  15.297   9.610
71482W        W24378   2.587  15.444   2.016
71483W        W24379  29.238  29.323   1.303
71484W        W24380  28.779   1.748   9.608
71485W        W24381   7.345   8.431   0.857
71486W        W24382   7.589  34.954   2.107
71487W        W24383  23.778  23.603   7.619
71488W        W24384   1.288  33.785   1.050
71489W        W24385  24.161  21.976   9.951
71490W        W24386  14.916  31.995   7.886
71491W        W24387   9.802  16.346   1.102
71492W        W24388   1.375  12.091   8.774
71493W        W24389  23.091  16.783  10.129
71494W        W24390  29.118  22.464  10.058
71495W        W24391  12.870  10.463  10.119
71496W        W24392  22.418  24.211   8.358
71497W        W24393  11.034  22.937   0.787
71498W        W24394  29.523  31.133  10.092
71499W        W24395  32.956  29.805   1.155
71500W        W24396  26.735  12.308   7.475
71501W        W24397  21.568  10.957   1.161
71502W        W24398   3.761  32.091   9.403
71503W        W24399  21.605  21.466   1.655
71504W        W24400  28.328   1.612   0.652
71505W        W24401  24.817  25.520   1.707
71506W        W24402  28.888  28.574   7.906
71507W        W24403  35.606   0.365   9.564
71508W        W24404  19.483   8.642   7.940
71509W        W24405  24.088   5.175  10.006
71510W        W24406   6.711  32.084   8.753
71511W        W24407   0.423  25.919   0.767
71512W        W24408  15.116  18.797   1.704
71513W        W24409  29.166  34.069   8.018
71514W        W24410   9.264   0.513   9.228
71515W        W24411  10.549   8.503   9.108
71516W        W24412  15.454   2.747   7.923
71517W        W24413  15.407  22.647   1.349
71518W        W24414   1.492  14.119   2.303
71519W        W24415  13.296  13.741   1.919
71520W        W24416  26.547  23.591   0.573
71521W        W24417  35.951   4.390   7.131
71522W        W24418   9.790   0.553   0.898
71523W        W24419  24.938   6.869   8.437
71524W        W24420  26.275  34.340  10.221
71525W        W24421  29.943  11.474   1.066
71526W        W24422  19.386   4.161   0.132
71527W        W24423  23.228  17.618   8.683
71528W        W24424   4.010  11.402  10.120
71529W        W24425  28.327  16.504   1.047
71530W        W24426   3.960  34.412   9.775
71531W        W24427  28.079  28.811   7.886
71532W        W24428  18.729  21.098   2.979
71533W        W24429  19.154  32.792   0.144
71534W        W24430  23.270  14.268   2.448
71535W        W24431  10.414  19.451   8.483
71536W        W24432  29.200  33.704   0.759
71537W        W24433   4.362  22.505   1.192
71538W        W24434  10.115  26.158   7.021
71539W        W24435  35.710  19.459   8.879
71540W        W24436  28.444   0.354   2.665
71541W        W24437  15.661  26.492   0.893
71542W        W24438   8.115  20.041   3.149
71543W        W24439  29.340   5.822   2.635
71544W        W24440  19.469  26.367   7.531
71545W        W24441   3.387  19.813   2.762
71546W        W24442   4.484   1.787   7.297
71547W        W24443  12.349  17.159   2.574
71548W        W24444   6.873   2.769   0.183
71549W        W24445  22.454  19.938   1.298
71550W        W24446  25.176  16.203  10.195
71551W        W24447  20.465  33.494   0.660
71552W        W24448  34.597  16.418   3.621
71553W        W24449  26.518   0.513   2.128
71554W        W24450  24.315   6.851   1.900
71555W        W24451  10.427  26.746   7.707
71556W        W24452  23.159  12.559   0.629
71557W        W24453  26.872  27.652   2.433
71558W        W24454  33.832   5.820  10.260
71559W        W24455  22.556  13.825  10.165
71560W        W24456  16.773  13.941  10.202
71561W        W24457   2.883  22.151  10.224
71562W        W24458  35.433  13.297   3.973
71563W        W24459  30.614  23.954   9.011
71564W        W24460   3.279  22.380   0.100
71565W        W24461  18.689  14.968   2.385
71566W        W24462  13.458  18.947   2.608
71567W        W24463  19.791  14.327   7.811
71568W        W24464   7.016  12.101   7.624
71569W        W24465  15.321   5.629   1.059
71570W        W24466  17.868  19.318   8.396
71571W        W24467  33.804  25.316   3.083
71572W        W24468   1.663   9.647   0.460
71573W        W24469  23.129   8.479   2.399
71574W        W24470   4.338   2.750   7.646
71575W        W24471  20.716   1.235   9.563
71576W        W24472   7.562  28.115   6.980
71577W        W24473  27.904  15.931   7.572
71578W        W24474  26.512  12.250   8.505
71579W        W24475  27.094  21.995   1.618
71580W        W24476  32.294  18.024   8.772
71581W        W24477  26.776   0.191   9.888
71582W        W24478  16.758   9.399   3.808
71583W        W24479  29.603  17.737   3.554
71584W        W24480   9.091   3.105   0.359
71585W        W24481  23.789  27.258   1.722
71586W        W24482  18.727  33.648   0.047
71587W        W24483   0.225  12.934   1.914
71588W        W24484  28.915   8.269   0.954
71589W        W24485   8.215  10.346   9.368
71590W        W24486  34.973  22.338   1.277
71591W        W24487  14.514  14.627   9.285
71592W        W24488   9.932   8.656   2.045
71593W        W24489  17.577  23.359  10.094
71594W        W24490  33.226  20.149   2.857
71595W        W24491   3.532   3.510   0.797
71596W        W24492  12.162  27.296   2.173
71597W        W24493  20.905  35.253   8.457
71598W        W24494  23.689  30.275   1.427
71599W        W24495  29.065  11.535   8.592
71600W        W24496   1.195  13.467   8.862
71601W        W24497  35.250  12.941   2.165
71602W        W24498  11.828  27.454   2.565
71603W        W24499  22.311  12.934   9.627
71604W        W24500   2.740  28.182   6.825
71605W        W24501  18.896  31.539   2.415
71606W        W24502  32.946   4.170   2.502
71607W        W24503  12.368   6.768   8.826
71608W        W24504  21.509   8.766   1.447
71609W        W24505  13.203   4.843   9.059
71610W        W24506  25.113  17.448   0.213
71611W        W24507   8.104  28.146   0.166
71612W        W24508   0.156  16.481   8.114
71613W        W24509   5.208  35.010   1.002
71614W        W24510  29.709  10.299   0.053
71615W        W24511  21.071   4.534   9.989
71616W        W24512  25.688   8.204  10.062
71617W        W24513  21.818  34.569   8.732
71618W        W24514   3.333   0.823   0.686
71619W        W24515  33.920  32.316   1.867
71620W        W24516  33.012  15.774   8.300
71621W        W24517  33.265  28.433   2.740
71622W        W24518  15.093   3.995   7.879
71623W        W24519   5.424   6.054   2.275
71624W        W24520  17.985  24.744   8.607
71625W        W24521  26.293  16.687   3.540
71626W        W24522   0.299  27.062   3.333
71627W        W24523  30.940  27.601   2.633
71628W        W24524  29.279  21.940   9.120
71629W        W24525   4.233  35.312   9.754
71630W        W24526   5.815  12.497   9.499
71631W        W24527  20.422  32.410   2.172
71632W        W24528  22.462  25.851   2.482
71633W        W24529   4.005  18.859   2.139
71634W        W24530   6.145  24.899   8.156
71635W        W24531   7.673  28.554   7.829
71636W        W24532  26.751  24.660   0.558
71637W        W24533   7.000  16.504   0.869
71638W        W24534  16.285  25.613   9.021
71639W        W24535  16.131   7.817   3.121
71640W        W24536  33.554  26.701   2.450
71641W        W24537  14.940  11.271   0.202
71642W        W24538   4.341  34.500  10.163
71643W        W24539  15.587  21.701   8.387
71644W        W24540  23.411  13.818   0.899
71645W        W24541   5.618   6.605   9.490
71646W        W24542  31.433  33.505   8.552
71647W        W24543  29.865  28.666   2.710
71648W        W24544  35.080  24.761  10.201
71649W        W24545  12.756  12.670   1.559
71650W        W24546  16.203  35.690   9.553
71651W        W24547  18.731  27.137   1.638
71652W        W24548   9.490   5.516   8.891
71653W        W24549  19.334   3.048   0.167
71654W        W24550  33.849  15.497   7.777
71655W        W24551  11.706  22.667   8.591
71656W        W24552  28.029  15.488   9.860
71657W        W24553  28.283  33.489   1.291
71658W        W24554   0.213  15.847   2.981
71659W        W24555  21.684   7.430  10.274
71660W        W24556  14.922  20.400   0.867
71661W        W24557   5.012  34.464   0.607
71662W        W24558  35.749  30.924   2.923
71663W        W24559  22.004  20.460   9.259
71664W        W24560  21.842   4.731   1.732
71665W        W24561  25.580   2.129   8.856
71666W        W24562   4.171  19.909  10.314
71667W        W24563  13.290  28.391   1.898
71668W        W24564  22.405  34.803   9.340
71669W        W24565  19.331   6.729   0.752
71670W        W24566  15.976  14.503   9.058
71671W        W24567   8.132  10.542   8.891
71672W        W24568  12.485  34.843   9.896
71673W        W24569   9.877  12.470   9.956
71674W        W24570   8.812  15.775   9.474
71675W        W24571  25.162   2.336   0.488
71676W        W24572  29.067   0.155   1.556
71677W        W24573  13.913  29.010   9.071
71678W        W24574  32.047  15.516   0.522
71679W        W24575  33.367  30.741   1.184
71680W        W24576   5.102   3.969   2.684
71681W        W24577  34.237   0.036   2.636
71682W        W24578  14.775  11.773   0.273
71683W        W24579  26.150   6.180   7.326
71684W        W24580  19.201  21.596   2.258
71685W        W24581   4.896   2.763   0.443
71686W        W24582  19.718  29.178   0.771
71687W        W24583   6.164   9.970   2.039
71688W        W24584  28.387  17.191   2.382
71689W        W24585  34.073   1.737   0.700
71690W        W24586  13.211  35.971   7.267
71691W        W24587  33.477   2.345   6.744
71692W        W24588   5.552   8.666   6.833
71693W        W24589  18.230  25.618   9.345
71694W        W24590  30.750  21.435   1.556
71695W        W24591  13.634   0.891   7.417
71696W        W24592  11.348  24.809   7.292
71697W        W24593  23.861  13.217   3.122
71698W        W24594  27.200  17.937   9.863
71699W        W24595  28.776   3.506   7.472
71700W        W24596   7.772   8.643   1.849
71701W        W24597  21.774  25.907   9.015
71702W        W24598   5.111  35.982   3.187
71703W        W24599  25.092   1.229   0.304
71704W        W24600   8.475  20.655   1.902
71705W        W24601   8.732  20.863   7.598
71706W        W24602  13.332   7.906   9.994
71707W        W24603   7.080   7.921  10.283
71708W        W24604  25.462  29.838   8.247
71709W        W24605  25.351  32.875   3.483
71710W        W24606  34.636  35.199   1.317
71711W        W24607   2.793  33.286  10.231
71712W        W24608  28.205  14.838   0.685
71713W        W24609  27.943  21.887   0.662
71714W        W24610  14.894   3.939  10.144
71715W        W24611  35.020  32.036   2.801
71716W        W24612   4.500  13.593   1.983
71717W        W24613  25.551  33.109   3.036
71718W        W24614  25.474  11.536   9.817
71719W        W24615  29.834  20.339   8.405
71720W        W24616  10.610  16.676   2.475
71721W        W24617  12.881  17.000   2.873
71722W        W24618  30.648   1.051   2.674
71723W        W24619  29.165  20.425   7.853
71724W        W24620   6.546  33.033   6.779
71725W        W24621  10.288  10.592   8.448
71726W        W24622  12.153  20.017   7.554
71727W        W24623  15.740  18.039   8.802
71728W        W24624   0.037  30.738   3.390
71729W        W24625   1.179  11.196   8.628
71730W        W24626   8.936   7.630   9.531
71731W        W24627  26.452  18.678   9.499
71732W        W24628  16.835   1.878   9.332
71733W        W24629  12.829  32.034   9.179
71734W        W24630   6.613  35.622   8.170
71735W        W24631  11.233  31.167   1.526
71736W        W24632  12.817  13.577   7.529
71737W        W24633  35.035  21.612   1.404
71738W        W24634  33.471  23.695   0.303
71739W        W24635   3.395  10.995   8.256
71740W        W24636   6.902  18.354   1.611
71741W        W24637  12.003  35.276   1.007
71742W        W24638  34.040  26.846   7.945
71743W        W24639  21.503  35.704   7.958
71744W        W24640  21.678  21.388   0.335
71745W        W24641  14.777  21.416   8.388
71746W        W24642  35.580   0.966   9.480
71747W        W24643   5.696  30.511   2.931
71748W        W24644  13.251  21.641   2.550
71749W        W24645  35.038   5.504   9.372
71750W        W24646  15.342  23.978   9.800
71751W        W24647  13.196  26.288   0.311
71752W        W24648  30.952   4.854   8.260
71753W        W24649   5.330  25.845   7.940
71754W        W24650   2.114  33.157   2.042
71755W        W24651  35.177   7.132   0.678
71756W        W24652  25.227   2.186   2.231
71757W        W24653  19.480   0.968   3.706
71758W        W24654   6.287  11.642   0.869
71759W        W24655  10.122   1.493   8.273
71760W        W24656  16.904   7.034   9.799
71761W        W24657  26.012  12.383   2.013
71762W        W24658   8.670   4.317   3.123
71763W        W24659  26.825  18.388   0.549
71764W        W24660  13.975  36.001   8.094
71765W        W24661  11.756  22.899   9.163
71766W        W24662  23.796  30.725   8.825
71767W        W24663  35.982  10.433   2.138
71768W        W24664  22.168   4.693  10.110
71769W        W24665  28.648  10.530   8.507
71770W        W24666   5.915  21.114   2.991
71771W        W24667   8.380  11.170   8.835
71772W        W24668  25.747   1.532   9.861
71773W        W24669   8.790  26.380   8.987
71774W        W24670  10.235  32.078   1.268
71775W        W24671  22.278  33.713  10.061
71776W        W24672  33.551  22.051   2.698
71777W        W24673  27.871  26.153   9.004
71778W        W24674  12.534  20.754   8.513
71779W        W24675  32.134  21.439   0.997
71780W        W24676   8.440  12.092   7.537
71781W        W24677  32.575  17.956   0.243
71782W        W24678  10.699  32.242   7.457
71783W        W24679  12.135   1.303   8.344
71784W        W24680  36.004  29.658   8.714
71785W        W24681  35.881  21.507   7.806
71786W        W24682  33.229   0.337   8.189
71787W        W24683   6.237  34.665   2.619
71788W        W24684   9.048   1.379   0.629
71789W        W24685  16.205   7.064   0.190
71790W        W24686  29.767  14.649   2.123
71791W        W24687   3.388  18.187   3.406
71792W        W24688  23.363  24.548   0.930
71793W        W24689  21.899  32.435   1.650
71794W        W24690  20.372  32.929   9.126
71795W        W24691  25.606  33.269   8.413
71796W        W24692   8.905   1.842   7.483
71797W        W24693  26.281  12.103   9.803
71798W        W24694   5.115  28.046   9.620
71799W        W24695  33.197  24.905   9.918
71800W        W24696  17.867  12.580   7.817
71801W        W24697  26.456  34.240   0.991
71802W        W24698  19.290   9.156   2.660
71803W        W24699   0.173  34.869   1.718
71804W        W24700  24.627   6.595   0.693
71805W        W24701  33.257   0.140   1.376
71806W        W24702  13.082  12.138   0.890
71807W        W24703  32.988   5.346   8.313
71808W        W24704   3.543   5.618   0.434
71809W        W24705   4.076  21.676   9.388
71810W        W24706  17.039   3.574   8.961
71811W        W24707   4.317  10.497   8.362
71812W        W24708   2.913  25.727   8.781
71813W        W24709  28.007  20.148   8.712
71814W        W24710  20.979  10.323   2.681
71815W        W24711  16.406  11.213   0.449
71816W        W24712  22.235  17.533   2.200
71817W        W24713  23.019  33.791   8.518
71818W        W24714   5.631   9.586   8.168
71819W        W24715  28.057  27.748   0.826
71820W        W24716   1.576  10.501   3.215
71821W        W24717   6.242  33.910  10.286
71822W        W24718  34.474  17.335   9.527
71823W        W24719  24.649  16.614   0.615
71824W        W24720  34.428  28.559   3.042
71825W        W24721  23.131  20.973   0.992
71826W        W24722  10.147  32.638   1.882
71827W        W24723  21.447  17.507   3.046
71828W        W24724  28.034  20.522  10.258
71829W        W24725  28.332   6.168   0.311
71830W        W24726  20.614   8.629   7.387
71831W        W24727  31.749   1.523   0.438
71832W        W24728  30.031  18.905   9.311
71833W        W24729  29.766  33.571   2.962
71834W        W24730  35.875  33.278   9.373
71835W        W24731  16.302   3.313   1.121
71836W        W24732  26.382  32.956   0.047
71837W        W24733  14.185  22.955   9.471
71838W        W24734  22.357  17.645   9.035
71839W        W24735   6.038   3.170   9.944
71840W        W24736  30.825  26.571   8.079
71841W        W24737  17.212  25.397   1.861
71842W        W24738   4.331  31.119   2.272
71843W        W24739  34.153  32.923   2.252
71844W        W24740  22.811   7.434   9.075
71845W        W24741   5.164   0.895   9.739
71846W        W24742   7.749  11.297  10.335
71847W        W24743  33.382  11.680   9.862
71848W        W24744  26.356   8.166   0.998
71849W        W24745  16.824  24.619   2.223
71850W        W24746   0.201  26.746   2.794
71851W        W24747  20.673  26.141   2.373
71852W        W24748   8.289   9.544   9.653
71853W        W24749  23.233  12.009  10.159
71854W        W24750   4.925  13.305   2.672
71855W        W24751   0.589   7.489   1.028
71856W        W24752   9.917   8.524   1.540
71857W        W24753  26.297   3.311   9.920
71858W        W24754  28.206  13.306   8.404
71859W        W24755  17.596  25.266   9.894
71860W        W24756  32.417   4.283   1.928
71861W        W24757   9.187  13.493   1.307
71862W        W24758  27.074  17.392   9.279
71863W        W24759  20.723   9.115   8.266
71864W        W24760  29.276   8.047  10.154
71865W        W24761  13.606  11.257   9.881
71866W        W24762  13.233  32.307   1.050
71867W        W24763   9.048   8.658   8.852
71868W        W24764  26.802   8.254   8.161
71869W        W24765  12.721  18.367   1.800
71870W        W24766  34.808   4.808   0.592
71871W        W24767  28.474  29.168   1.307
71872W        W24768  34.333  23.540   0.112
71873W        W24769  25.151  20.500   7.701
71874W        W24770  30.672  34.483   2.869
71875W        W24771  23.748  35.130   0.604
71876W        W24772  10.596  19.051   1.790
71877W        W24773  21.862  29.646   0.655
71878W        W24774   3.058  26.384   1.669
71879W        W24775  34.782  15.018   8.331
71880W        W24776  18.774  32.529   2.475
71881W        W24777  10.567  23.728   9.747
71882W        W24778  19.684   7.790   0.528
71883W        W24779   2.415  19.858   8.326
71884W        W24780   6.461  10.617   7.863
71885W        W24781   1.898  26.426   1.584
71886W        W24782   3.776  17.931   0.086
71887W        W24783   1.795  16.577   9.815
71888W        W24784   2.863  33.050   2.538
71889W        W24785   1.815  10.856  10.294
71890W        W24786   4.694  23.928   0.466
71891W        W24787   0.599   1.970   1.448
71892W        W24788  12.996  18.006   0.637
71893W        W24789  12.421  28.349   2.427
71894W        W24790  15.204  15.384   8.800
71895W        W24791  25.372  18.665   1.304
71896W        W24792  26.904   1.556   2.759
71897W        W24793  11.866  35.370  10.065
71898W        W24794   9.354  21.763   7.418
71899W        W24795  25.223   8.247   9.746
71900W        W24796   3.268  14.157   1.882
71901W        W24797  29.012  14.330   1.489
71902W        W24798   8.617   8.872   0.500
71903W        W24799   8.389   0.234   7.675
71904W        W24800  11.130   9.346   0.504
71905W        W24801  16.033   6.231   1.436
71906W        W24802   1.044  35.612   9.541
71907W        W24803  26.490   1.456   0.236
71908W        W24804   8.286  34.407   0.732
71909W        W24805  26.822   9.721   2.604
71910W        W24806  10.770  25.659   8.857
71911W        W24807   6.133  23.266   2.352
71912W        W24808   6.218  35.726   9.880
71913W        W24809  15.556   0.711   7.878
71914W        W24810  30.320  10.521   2.527
71915W        W24811   8.718  32.364   1.142
71916W        W24812  25.428  13.052   8.274
71917W        W24813  34.151   0.135   3.172
71918W        W24814  27.677  32.830   6.845
71919W        W24815   8.065  35.386   6.739
71920W        W24816  19.374  26.483   8.867
71921W        W24817  28.191  14.670   8.049
71922W        W24818  31.647   7.398   9.677
71923W        W24819  11.744  21.952  10.311
71924W        W24820  20.337   8.478   8.134
71925W        W24821  28.022  25.665   2.232
71926W        W24822   7.433  20.889   3.227
71927W        W24823   1.150  31.583   3.178
71928W        W24824  29.187   7.833   3.296
71929W        W24825  27.480  20.261   9.785
71930W        W24826   1.368   3.626   2.475
71931W        W24827  21.190  29.827   8.389
71932W        W24828  25.655  34.547   9.475
71933W        W24829  34.754   5.068  10.250
71934W        W24830  18.835  13.358   0.624
71935W        W24831  32.121   9.404   8.379
71936W        W24832  28.239  32.521   1.461
71937W        W24833  10.450   9.152   9.065
71938W        W24834  24.559   5.677   8.047
71939W        W24835  23.956  17.057   9.470
71940W        W24836  25.897   4.227   7.493
71941W        W24837   1.164   3.082   2.246
71942W        W24838  28.551  12.828   7.721
71943W        W24839  24.933  12.410   7.343
71944W        W24840  16.408  29.192  10.039
71945W        W24841  30.079  14.541   8.867
71946W        W24842  24.473  20.114   1.379
71947W        W24843  27.392  12.451   1.596
71948W        W24844   3.496  24.111   1.782
71949W        W24845   6.249  22.851   3.134
71950W        W24846  23.630  16.849   2.933
71951W        W24847  14.111  33.522   9.452
71952W        W24848  29.016   5.618   2.148
71953W        W24849  26.909   0.322   1.852
71954W        W24850   4.639  30.486   3.248
71955W        W24851   0.494   1.804   9.178
71956W        W24852   3.014  32.470   2.518
71957W        W24853  14.155  21.218   0.738
71958W        W24854   0.395  24.715   2.555
71959W        W24855  15.487  11.693   1.918
71960W        W24856  35.025  11.130   1.355
71961W        W24857  10.149  31.647   8.421
71962W        W24858   3.672   1.050   7.528
71963W        W24859   9.069  16.299  10.102
71964W        W24860  31.247  26.028   0.498
71965W        W24861  21.975  28.790   8.227
71966W        W24862  22.633  23.328   8.178
71967W        W24863  26.526   5.651   8.393
71968W        W24864  26.558   7.863   1.323
71969W        W24865  19.982  26.488   0.009
71970W        W24866   5.908  34.662   8.539
71971W        W24867  21.866  15.272   8.523
71972W        W24868   3.799   3.118   0.559
71973W        W24869   8.784   6.780   2.715
71974W        W24870  30.467   0.410   8.471
71975W        W24871  16.112  12.271   9.736
71976W        W24872  13.483   8.792   8.847
71977W        W24873   6.790   8.862   1.738
71978W        W24874  10.900  27.651   7.738
71979W        W24875  20.493  26.282   2.816
71980W        W24876   9.521   5.875   9.474
71981W        W24877  26.602  13.499   2.887
71982W        W24878  34.400  28.121   9.616
71983W        W24879  28.376  20.357   9.817
71984W        W24880  34.286  34.584   8.700
71985W        W24881   5.791  28.069   2.227
71986W        W24882   8.979  22.575   7.682
71987W        W24883   1.067  30.104   0.110
71988W        W24884  20.053   4.663   7.675
71989W        W24885   8.228  14.373   2.936
71990W        W24886  35.199  32.012   3.310
71991W        W24887  14.844  10.891  10.239
71992W        W24888  26.320  24.449   0.578
71993W        W24889  29.186  10.239   2.320
71994W        W24890  21.502  34.050   1.730
71995W        W24891   8.570  32.267   0.639
71996W        W24892  19.104   8.054   8.710
71997W        W24893   6.051   5.372   9.171
71998W        W24894  34.257   0.063   9.545
71999W        W24895  35.886  19.361   2.812
72000W        W24896   1.361  13.993   9.542
72001W        W24897   4.753   1.585   3.231
72002W        W24898   5.530  14.282   1.338
72003W        W24899  16.939  33.428   1.522
72004W        W24900  12.928  31.430   1.213
72005W        W24901  27.428  10.674   8.990
72006W        W24902   3.889  26.157   3.937
72007W        W24903  25.418  19.438   1.254
72008W        W24904  23.771  11.171   2.619
72009W        W24905   9.031   1.513   1.216
72010W        W24906  20.839   2.486   9.899
72011W        W24907  29.053   6.417   7.962
72012W        W24908   8.129  10.182   1.014
72013W        W24909  19.009  30.654  10.218
72014W        W24910   9.978   5.587   8.913
72015W        W24911  16.254  10.112   9.175
72016W        W24912  34.429  26.623   8.988
72017W        W24913   6.706  34.062   3.050
72018W        W24914  33.086  13.726   2.830
72019W        W24915   8.448  31.162   1.349
72020W        W24916  23.912  20.963   2.280
72021W        W24917   7.498  14.492   1.066
72022W        W24918  11.893  17.248   2.323
72023W        W24919  12.529  33.274   1.669
72024W        W24920  31.597  24.198  10.097
72025W        W24921   0.404  33.765   1.118
72026W        W24922  35.071  12.010   8.554
72027W        W24923   6.561  21.383   3.303
72028W        W24924   0.543  21.114   9.681
72029W        W24925   3.945  29.394   8.086
72030W        W24926  13.919  31.665   0.126
72031W        W24927  20.517  13.655   0.239
72032W        W24928  35.434  29.898   1.437
72033W        W24929  22.663  12.560   9.641
72034W        W24930   9.439  33.538   2.022
72035W        W24931   6.261  22.604   8.139
72036W        W24932  11.732  35.874  10.075
72037W        W24933   7.095  32.767  10.327
72038W        W24934  33.185   6.707   1.679
72039W        W24935  22.993   2.394   8.174
72040W        W24936   3.043   3.577   0.095
72041W        W24937  32.048  35.861   1.018
72042W        W24938  26.194  30.615   7.791
72043W        W24939   0.382  35.601   2.741
72044W        W24940  22.473  21.840   1.463
72045W        W24941  28.092  16.673  10.036
72046W        W24942   7.814  30.258   7.707
72047W        W24943   7.826   7.333   8.239
72048W        W24944  25.262   1.527   1.612
72049W        W24945  12.761  19.962   2.405
72050W        W24946   5.645  21.635   0.429
72051W        W24947  27.189  30.292   1.696
72052W        W24948   3.986   3.025   1.983
72053W        W24949  27.679  30.395   9.141
72054W        W24950  23.489  11.829   1.931
72055W        W24951  22.013  19.620   1.547
72056W        W24952  16.356  25.749   2.058
72057W        W24953  16.076  12.469   8.470
72058W        W24954   9.941  21.524   9.393
72059W        W24955   9.436  29.092  10.011
72060W        W24956  25.113   7.048   0.806
72061W        W24957  23.266  32.210   8.054
72062W        W24958  19.684  19.487   7.617
72063W        W24959  17.056   6.306   1.051
72064W        W24960  20.715  25.226   9.919
72065W        W24961  10.571  22.298   3.044
72066W        W24962  30.145   7.802   7.213
72067W        W24963  23.885   1.221   8.638
72068W        W24964  13.031  26.294   1.527
72069W        W24965   2.341  13.795   0.630
72070W        W24966  23.401  15.348   0.535
72071W        W24967  23.156  10.853   9.397
72072W        W24968  16.346  29.033   3.507
72073W        W24969   1.322  35.176   9.796
72074W        W24970  25.916  16.123   9.485
72075W        W24971   8.250   1.115   9.283
72076W        W24972  16.169  21.839   1.526
72077W        W24973  34.345  30.921   3.199
72078W        W24974  34.106   5.089   8.508
72079W        W24975  10.955  33.166   7.868
72080W        W24976  25.875  22.711   2.036
72081W        W24977   0.564   9.023   2.828
72082W        W24978  15.068  30.292   1.370
72083W        W24979  26.223  31.561   8.066
72084W        W24980   4.953  19.484   8.242
72085W        W24981  14.248  20.179   9.383
72086W        W24982   3.279  26.775   9.673
72087W        W24983  31.276  21.012   8.581
72088W        W24984  30.490  23.937   7.698
72089W        W24985  30.531  11.695   7.859
72090W        W24986  25.639  29.912   9.561
72091W        W24987  14.664   3.017   3.084
72092W        W24988  18.589   7.965  10.090
72093W        W24989  15.928  25.246   1.458
72094W        W24990  22.019  30.482   2.917
72095W        W24991   0.379  28.906   1.823
72096W        W24992   1.257  19.172   2.261
72097W        W24993  18.978  21.541   3.757
72098W        W24994  25.656  33.459   0.942
72099W        W24995  28.336  24.689   7.627
72100W        W24996  31.266  12.537   1.477
72101W        W24997  19.424  21.156   9.366
72102W        W24998   4.397  10.002   0.181
72103W        W24999   4.796  12.705   8.314
72104W        W25000  13.630  11.710   1.936
72105W        W25001   5.335  18.253   1.384
72106W        W25002  22.929   4.037   3.103
72107W        W25003  31.959   1.824   9.286
72108W        W25004  14.093   4.152   0.547
72109W        W25005  30.669   2.256   9.474
72110W        W25006  14.462  20.105   1.327
72111W        W25007  12.700  15.251  10.027
72112W        W25008  32.576   4.189   7.474
72113W        W25009  34.290   8.988  10.220
72114W        W25010  30.118  11.755   2.333
72115W        W25011  11.304  29.000   1.960
72116W        W25012  15.283  28.712   2.090
72117W        W25013  33.537  23.556   3.182
72118W        W25014  21.382  15.629   1.585
72119W        W25015   1.845  29.924   0.091
72120W        W25016  19.072  27.479   0.436
72121W        W25017  26.433   7.276   0.178
72122W        W25018  34.892  14.931   0.777
72123W        W25019  35.423  30.796   9.456
72124W        W25020  18.793  10.973   0.196
72125W        W25021  33.721  23.552   8.248
72126W        W25022  13.846  25.088   2.740
72127W        W25023  11.755  22.730   7.439
72128W        W25024   1.168  34.716   8.658
72129W        W25025  14.302   9.672   9.602
72130W        W25026   9.498  27.974   1.230
72131W        W25027  15.202   6.594  10.236
72132W        W25028   5.389   0.333   8.739
72133W        W25029  26.274  21.148   3.014
72134W        W25030   7.216  16.973   0.723
72135W        W25031  28.360  18.775   9.809
72136W        W25032   1.927  32.860   1.589
72137W        W25033  27.612  32.956   8.355
72138W        W25034  27.728  12.653   8.222
72139W        W25035  29.004  19.523   1.090
72140W        W25036   3.754  20.199   8.045
72141W        W25037   3.087  24.319   0.400
72142W        W25038   3.758   3.647   1.736
72143W        W25039   5.021   4.341   1.405
72144W        W25040  24.093  31.052   1.332
72145W        W25041  28.648  28.057   0.408
72146W        W25042  33.279  33.531   8.786
72147W        W25043  18.125   6.110   7.743
72148W        W25044  35.343   6.811   3.161
72149W        W25045  27.781  12.112   0.723
72150W        W25046  24.924  25.958   8.163
72151W        W25047   8.569  13.945  10.265
72152W        W25048  18.684  23.240   9.471
72153W        W25049  13.429  23.780   9.052
72154W        W25050  25.446   1.963  10.010
72155W        W25051   8.261  29.749   8.735
72156W        W25052  21.766  19.879   9.567
72157W        W25053  23.930   0.982   0.348
72158W        W25054  23.826  20.294  10.319
72159W        W25055  25.255  23.227   8.202
72160W        W25056   0.556   7.010   3.443
72161W        W25057   8.505   2.588   7.590
72162W        W25058  16.299  25.789   9.643
72163W        W25059  16.496  12.919   1.574
72164W        W25060  23.019   0.065   0.374
72165W        W25061  28.050  14.239   8.767
72166W        W25062  34.709  15.195   1.176
72167W        W25063  11.391   8.120   0.302
72168W        W25064  12.331  30.100   2.656
72169W        W25065  19.376   5.392   1.427
72170W        W25066  32.361  12.216   8.865
72171W        W25067   3.953  32.085   8.166
72172W        W25068   0.876  10.780  10.061
72173W        W25069   7.155  16.494   1.347
72174W        W25070   5.342  31.500   8.506
72175W        W25071  31.597  11.087   9.747
72176W        W25072  10.143  10.805   2.879
72177W        W25073  15.075  16.064   2.899
72178W        W25074  24.631   9.597   8.510
72179W        W25075  15.348   5.640   2.529
72180W        W25076  17.390  13.116   0.008
72181W        W25077   0.348  20.232   0.374
72182W        W25078   9.713  32.207   3.191
72183W        W25079  21.287   2.963   7.631
72184W        W25080  10.202  11.198   0.152
72185W        W25081   8.499  33.690   9.674
72186W        W25082   8.985  13.008   2.748
72187W        W25083  30.929  33.511   8.143
72188W        W25084  14.559   5.749   3.577
72189W        W25085  14.917  32.814   9.770
72190W        W25086  12.079  33.683   9.883
72191W        W25087  24.815  10.388   0.066
72192W        W25088  13.959  19.706   2.892
72193W        W25089  30.027  31.484   0.882
72194W        W25090  32.579  30.933   1.665
72195W        W25091  29.708   2.312   9.031
72196W        W25092  24.824   9.138   8.459
72197W        W25093  16.045  25.496   3.283
72198W        W25094   3.143   7.906   2.180
72199W        W25095  16.080  33.197   7.320
72200W        W25096   6.137  19.205   3.146
72201W        W25097  35.994   1.303   1.870
72202W        W25098   7.612   7.375   2.549
72203W        W25099   9.806  34.471   0.600
72204W        W25100   7.018   4.220   7.114
72205W        W25101  28.543  25.832   0.519
72206W        W25102  29.928  24.693   2.771
72207W        W25103  22.344  14.384   1.648
72208W        W25104  30.210  35.216   0.612
72209W        W25105  22.518  18.294   3.504
72210W        W25106  35.839  18.690   1.021
72211W        W25107  25.476  19.405   8.826
72212W        W25108  12.298  22.194   2.049
72213W        W25109  10.588  15.486   2.803
72214W        W25110   7.811   8.645   0.692
72215W        W25111  30.093   5.895   0.401
72216W        W25112   6.694   9.416   8.905
72217W        W25113  21.949  18.936  10.331
72218W        W25114   5.205   8.906   3.778
72219W        W25115  12.843  19.745   9.265
72220W        W25116  24.267  34.745   7.845
72221W        W25117  11.582  34.633   2.681
72222W        W25118   0.021  17.999   1.333
72223W        W25119  15.282   4.044   2.347
72224W        W25120   1.588   2.768   2.758
72225W        W25121  25.777  14.911   8.799
72226W        W25122  28.872  23.931   9.408
72227W        W25123  29.664   5.468   2.868
72228W        W25124   0.674  19.683   7.842
72229W        W25125   5.721  13.285   2.437
72230W        W25126  27.961  31.696   1.397
72231W        W25127  35.617   2.051   1.881
72232W        W25128  34.443  30.585   9.853
72233W        W25129  27.930  11.397   7.987
72234W        W25130   1.973  18.781   9.409
72235W        W25131  23.220   0.145   2.732
72236W        W25132  30.385   9.366   2.133
72237W        W25133  34.785  10.048   7.592
72238W        W25134  29.037  31.170   0.032
72239W        W25135   6.061  15.524   0.203
72240W        W25136  12.908  29.903   9.677
72241W        W25137  33.216  32.051   0.194
72242W        W25138  28.036   3.550   3.027
72243W        W25139   5.517   3.111   2.597
72244W        W25140  24.200  27.188   8.405
72245W        W25141   3.218   9.128   7.625
72246W        W25142  28.125  33.682   0.095
72247W        W25143   7.387   6.491   8.162
72248W        W25144   2.100  27.536   1.640
72249W        W25145  22.036   3.685   9.037
72250W        W25146  31.838  18.297  10.162
72251W        W25147  32.728   5.667   8.875
72252W        W25148  24.364  30.181   9.754
72253W        W25149   0.965  20.179   3.301
72254W        W25150   4.928   7.390   0.895
72255W        W25151  33.769   3.842   1.581
72256W        W25152   8.597  12.017   9.989
72257W        W25153  25.094  30.918   9.863
72258W        W25154  31.035  16.771   0.845
72259W        W25155  11.963  25.803   9.279
72260W        W25156  15.440  34.033   2.937
72261W        W25157  19.523  11.193   2.590
72262W        W25158  19.187   1.040  10.023
72263W        W25159   1.783  14.496   4.490
72264W        W25160   3.467  21.764   2.573
72265W        W25161  22.130  10.139   0.547
72266W        W25162  34.569   9.697   0.637
72267W        W25163  22.164  24.613   0.417
72268W        W25164  22.050   5.905   8.156
72269W        W25165  23.252  10.433   1.426
72270W        W25166  30.502  23.364   9.971
72271W        W25167  23.592  33.028   1.241
72272W        W25168   3.891  13.903   2.964
72273W        W25169  23.243  19.570   0.303
72274W        W25170  22.381  12.479   1.936
72275W        W25171  34.066   5.081   0.721
72276W        W25172  16.683  11.639   9.885
72277W        W25173  34.961  18.729   9.110
72278W        W25174  32.285  10.039   8.604
72279W        W25175  21.798  22.933   9.510
72280W        W25176   3.791  20.153   1.795
72281W        W25177  23.866  15.645   9.714
72282W        W25178   8.877  11.249   2.454
72283W        W25179  29.577  35.991   0.803
72284W        W25180  34.429  30.163   2.623
72285W        W25181  17.884  29.367   2.528
72286W        W25182  16.269   8.340   2.456
72287W        W25183  30.689   8.664   8.549
72288W        W25184  31.304  25.883   9.302
72289W        W25185  18.358  14.567   0.309
72290W        W25186  25.049  35.326   9.719
72291W        W25187   4.162  29.488   9.840
72292W        W25188  23.119  16.536   9.177
72293W        W25189  11.993  20.071   2.235
72294W        W25190  28.866  31.230   8.802
72295W        W25191  20.701  32.696   0.159
72296W        W25192  33.492  24.671  10.259
72297W        W25193   0.995  33.896   2.758
72298W        W25194  26.804   0.316   3.193
72299W        W25195   4.163   1.036  10.149
72300W        W25196  16.633  21.824   1.308
72301W        W25197   7.009  29.476   1.620
72302W        W25198  15.391   0.717   9.591
72303W        W25199  32.780  20.300   1.136
72304W        W25200   3.167  28.931   7.352
72305W        W25201  20.921  17.901   1.763
72306W        W25202  20.648  12.806   9.578
72307W        W25203  34.038  28.421   2.327
72308W        W25204  20.041  19.821   1.918
72309W        W25205  26.349  21.947  10.243
72310W        W25206  25.431  23.651   3.497
72311W        W25207  15.292  11.167   0.541
72312W        W25208   3.925  13.203   9.881
72313W        W25209  21.042  22.183   3.287
72314W        W25210  27.233  28.013   2.749
72315W        W25211  33.641   0.697   9.819
72316W        W25212  32.491  16.170   1.300
72317W        W25213   1.131   8.761   2.314
72318W        W25214  20.559  31.151   4.143
72319W        W25215  22.893   5.811   1.954
72320W        W25216   7.237   4.617   1.115
72321W        W25217  35.045  22.782   8.005
72322W        W25218  15.651  10.974   1.084
72323W        W25219  33.276  13.545   8.661
72324W        W25220  19.298   5.061   2.745
72325W        W25221  29.551  35.327   0.723
72326W        W25222  30.165  17.075   1.690
72327W        W25223   5.177  21.079   3.817
72328W        W25224   7.457  14.901   2.726
72329W        W25225  35.030  12.795   1.138
72330W        W25226   1.618  11.349   9.321
72331W        W25227   8.720   9.714   2.962
72332W        W25228   2.768   4.241   0.536
72333W        W25229  27.662   5.490   1.888
72334W        W25230  19.739   9.756   0.727
72335W        W25231   3.964  25.316   2.515
72336W        W25232  12.238   1.771   7.983
72337W        W25233   8.476  12.958   8.273
72338W        W25234  15.300   6.110  10.170
72339W        W25235   3.585  28.270   2.485
72340W        W25236  35.152  33.493   0.818
72341W        W25237   3.418  13.711   8.118
72342W        W25238  18.710  34.357   2.726
72343W        W25239   3.160  29.036   7.849
72344W        W25240  25.297  34.596   2.497
72345W        W25241  21.178  22.970   2.039
72346W        W25242   2.644   6.916   3.407
72347W        W25243   9.785  34.822   6.682
72348W        W25244   6.679  33.416   7.059
72349W        W25245   8.596  35.474   8.265
72350W        W25246  29.560  22.638   9.981
72351W        W25247  17.261  17.968   8.157
72352W        W25248  20.826  23.322   9.454
72353W        W25249   5.756  27.369   9.981
72354W        W25250  21.305  20.285   3.918
72355W        W25251  16.254  28.657   9.287
72356W        W25252  30.590  27.772   9.581
72357W        W25253   2.130   0.062   9.009
72358W        W25254  30.195  34.570   8.006
72359W        W25255  18.910  18.828   7.970
72360W        W25256   6.563  17.186  10.075
72361W        W25257  22.189  20.053   8.594
72362W        W25258   0.608  15.074   2.045
72363W        W25259  35.050  27.887   9.493
72364W        W25260  33.524   8.744  10.116
72365W        W25261   9.705  12.769   0.921
72366W        W25262  19.726  34.721   9.615
72367W        W25263   1.063   8.343   9.482
72368W        W25264  29.057  24.744   0.978
72369W        W25265  19.233  24.398   8.723
72370W        W25266   3.106  18.658   2.951
72371W        W25267  19.760  31.589   2.911
72372W        W25268  19.082  18.142   1.133
72373W        W25269   3.532  16.453   3.736
72374W        W25270  35.336  26.653   2.363
72375W        W25271  34.150   3.927  10.263
72376W        W25272   5.367  29.354   9.259
72377W        W25273  30.805  21.076   7.842
72378W        W25274  21.845  13.451  10.111
72379W        W25275  12.827  20.447   2.503
72380W        W25276   4.883  11.420   0.611
72381W        W25277  14.931  21.235   9.301
72382W        W25278  23.195  26.253   8.603
72383W        W25279   5.678  28.088   9.304
72384W        W25280  31.314   9.083   8.649
72385W        W25281  13.919  26.285   0.795
72386W        W25282   8.057  12.393   1.695
72387W        W25283   9.427  19.851   0.941
72388W        W25284  30.433  26.473   8.342
72389W        W25285  17.110  17.551   3.041
72390W        W25286  20.809  19.182  10.040
72391W        W25287  18.960  23.629   1.128
72392W        W25288  13.189  17.671   0.333
72393W        W25289  19.501   2.249   3.000
72394W        W25290  19.380  22.637   2.550
72395W        W25291  17.555  23.376   8.368
72396W        W25292  21.301  35.494   3.389
72397W        W25293   8.832   8.760   9.724
72398W        W25294  23.637  20.779   8.314
72399W        W25295  29.683  29.284   7.360
72400W        W25296  22.258  18.453   3.083
72401W        W25297  18.961  34.810   8.004
72402W        W25298  11.717  28.291   9.845
72403W        W25299  13.234   0.563   2.557
72404W        W25300  28.289  11.034   1.563
72405W        W25301   2.504   5.140   9.203
72406W        W25302  29.097  23.531   1.697
72407W        W25303  21.020  24.400  10.336
72408W        W25304  14.720  19.799   0.948
72409W        W25305  31.785   8.183   0.744
72410W        W25306   3.344   9.636   9.659
72411W        W25307  14.012  13.381   2.604
72412W        W25308  24.544  19.637   8.496
72413W        W25309   3.936  11.139   2.010
72414W        W25310   7.219  31.910  10.034
72415W        W25311  26.748   8.739   1.942
72416W        W25312  19.978   9.101   0.936
72417W        W25313  30.637  23.206   7.612
72418W        W25314   8.447  25.561   7.705
72419W        W25315  22.266   9.229   0.499
72420W        W25316  13.335  19.823   1.333
72421W        W25317  30.965  24.977   9.993
72422W        W25318  27.689  35.693   9.856
72423W        W25319   3.190  12.432   2.447
72424W        W25320   9.750  12.276   9.505
72425W        W25321  19.050  26.792   8.753
72426W        W25322  12.784  26.908   9.482
72427W        W25323  27.411   5.399   2.664
72428W        W25324  34.065   5.622   0.818
72429W        W25325  11.302  27.855   1.723
72430W        W25326  29.087  27.495  10.139
72431W        W25327  17.540  34.117   2.036
72432W        W25328  24.170  12.641   9.961
72433W        W25329  16.289  29.464   9.649
72434W        W25330  31.608  29.168   8.531
72435W        W25331  23.873  11.471   7.555
72436W        W25332  13.777  31.240   0.397
72437W        W25333  35.781   3.023   1.618
72438W        W25334  35.436  24.871   0.986
72439W        W25335  22.461  18.837   0.516
72440W        W25336  21.059  31.875  10.035
72441W        W25337  19.536  17.270   8.543
72442W        W25338  30.005   8.411   2.168
72443W        W25339  11.444  15.015   9.744
72444W        W25340  15.483  23.774   8.981
72445W        W25341   0.955   1.099   8.973
72446W        W25342  28.594  24.484   0.910
72447W        W25343  22.382  25.263   9.404
72448W        W25344  34.292  28.900   1.672
72449W        W25345  29.519  10.548   3.492
72450W        W25346  10.714  16.439   0.785
72451W        W25347  26.230  24.959   8.359
72452W        W25348  31.104  12.637   1.012
72453W        W25349  34.595   7.307   8.951
72454W        W25350   6.054  15.350   0.757
72455W        W25351   4.257  24.041   9.242
72456W        W25352   0.713  11.074   0.143
72457W        W25353   1.986  31.672   2.947
72458W        W25354  14.820  34.154   9.737
72459W        W25355  25.441  18.746   2.482
72460W        W25356  25.834   9.603   1.645
72461W        W25357   6.285  30.694   9.404
72462W        W25358  33.862   5.348  10.060
72463W        W25359  23.748  19.177   2.065
72464W        W25360  20.523  31.202  10.301
72465W        W25361   3.041  18.865   0.704
72466W        W25362  20.640   0.049   8.253
72467W        W25363   6.060   1.738   2.657
72468W        W25364  34.233  21.718   0.769
72469W        W25365  18.748  32.110   0.459
72470W        W25366  19.580  33.893   2.407
72471W        W25367  22.303  29.083   3.240
72472W        W25368  14.802   0.268   7.865
72473W        W25369  21.366  30.904   7.980
72474W        W25370  11.617  13.182   1.561
72475W        W25371  11.885   9.140   1.256
72476W        W25372   2.304  32.281   0.614
72477W        W25373  26.592  30.267   2.746
72478W        W25374  21.903  10.134   1.507
72479W        W25375  33.823   4.613   0.772
72480W        W25376  22.919  21.343   1.337
72481W        W25377  19.627  17.983   9.172
72482W        W25378   6.388  28.925   8.019
72483W        W25379   4.728  24.040   9.014
72484W        W25380   9.210  32.110   3.234
72485W        W25381  30.473  17.161   2.227
72486W        W25382  20.366   3.503   2.321
72487W        W25383   9.963  31.828   1.592
72488W        W25384  13.301   0.388   7.520
72489W        W25385  12.898  27.958   0.288
72490W        W25386  15.036  23.895   3.169
72491W        W25387  16.004  26.601   0.523
72492W        W25388  21.822  22.753   0.265
72493W        W25389  22.914  28.148   1.755
72494W        W25390  14.152  15.724   2.534
72495W        W25391  21.949   7.437   0.419
72496W        W25392  17.709  13.492   7.618
72497W        W25393  33.166  12.168   9.819
72498W        W25394   6.523  18.244   9.394
72499W        W25395  31.121   1.623   8.898
72500W        W25396  19.824   7.414   8.681
72501W        W25397  12.782  11.818   2.600
72502W        W25398  18.061   7.816   2.146
72503W        W25399   1.877   0.840   7.244
72504W        W25400   1.334   6.193   0.066
72505W        W25401   4.410  27.597   9.581
72506W        W25402   0.227  25.737   3.729
72507W        W25403  33.491   8.170   8.694
72508W        W25404   9.965  21.503   2.066
72509W        W25405  20.851   8.260   0.727
72510W        W25406  20.457  21.932   9.882
72511W        W25407   1.077  28.545   8.666
72512W        W25408   7.980  14.274  10.207
72513W        W25409  10.806  32.756   9.350
72514W        W25410  25.381  34.857   9.128
72515W        W25411   0.896   5.450   2.336
72516W        W25412  17.679   4.412   3.620
72517W        W25413  12.540  11.659   2.095
72518W        W25414  30.550  14.850   9.924
72519W        W25415  18.818  30.358   8.022
72520W        W25416  15.852  21.380   0.626
72521W        W25417  14.222  30.252   0.668
72522W        W25418   8.075  16.155   0.143
72523W        W25419  34.264   5.332   1.908
72524W        W25420   8.233  20.197   8.573
72525W        W25421  31.167  10.604   3.293
72526W        W25422   6.727  14.213   2.967
72527W        W25423  13.605   9.104   7.857
72528W        W25424  13.175  26.604   2.417
72529W        W25425  34.866  25.075   3.590
72530W        W25426   1.566  17.466   0.664
72531W        W25427  23.878  11.595   9.519
72532W        W25428   8.193  32.708   2.498
72533W        W25429   0.816  18.564   7.800
72534W        W25430  19.956  26.864   1.073
72535W        W25431  26.945  24.384   7.714
72536W        W25432   3.528   4.554   8.939
72537W        W25433  22.036  11.613   7.666
72538W        W25434   1.298   4.939   2.926
72539W        W25435   6.229  13.279   2.433
72540W        W25436  28.819   8.716   8.284
72541W        W25437   1.356   3.859   8.503
72542W        W25438  33.644   0.927   1.263
72543W        W25439  17.365   8.646   8.500
72544W        W25440   3.994  27.559   0.844
72545W        W25441  20.803   4.964   1.795
72546W        W25442  30.987  33.143   2.520
72547W        W25443  14.707   2.235   2.942
72548W        W25444  15.023  28.078   7.500
72549W        W25445  28.549  21.591   1.996
72550W        W25446   5.789  12.920   2.747
72551W        W25447  11.119  21.018   7.540
72552W        W25448   6.305   1.326   2.405
72553W        W25449   1.515  29.359   7.997
72554W        W25450  13.009   8.657  10.071
72555W        W25451   6.694  19.599   1.569
72556W        W25452  28.832  23.569   3.406
72557W        W25453  12.627  19.993   9.746
72558W        W25454   2.772  35.421   1.081
72559W        W25455  34.296   3.096   7.494
72560W        W25456   8.165  30.793   2.595
72561W        W25457   5.148  15.171   7.734
72562W        W25458   9.248  26.277   0.877
72563W        W25459  27.132  10.183   8.464
72564W        W25460  23.835   8.716   1.768
72565W        W25461  17.919  31.252  10.136
72566W        W25462   5.552  32.438  10.049
72567W        W25463  25.567  30.207   7.660
72568W        W25464  28.543   9.953   8.713
72569W        W25465   7.748  20.881   0.374
72570W        W25466   1.798  15.984   1.617
72571W        W25467  19.121  15.138   0.344
72572W        W25468  33.405   7.489   0.334
72573W        W25469   6.098  28.292   1.115
72574W        W25470   8.272  22.906   1.132
72575W        W25471  22.036  19.332   9.977
72576W        W25472  14.220   4.107   9.556
72577W        W25473  17.498   3.808   0.493
72578W        W25474   2.493  28.602   2.120
72579W        W25475  34.541  23.365   3.372
72580W        W25476   1.116  24.996   0.432
72581W        W25477   4.706   2.646   1.728
72582W        W25478   6.494  12.624   7.668
72583W        W25479  30.292   6.994   2.816
72584W        W25480  35.968   9.416  10.058
72585W        W25481  19.149  34.280   7.375
72586W        W25482   9.110  27.009   2.833
72587W        W25483  10.276  12.070   9.294
72588W        W25484  20.935   4.851   2.592
72589W        W25485   7.764   4.639   0.016
72590W        W25486   6.327   9.972   2.577
72591W        W25487  14.675  16.695   0.462
72592W        W25488  11.685  18.866   9.285
72593W        W25489   7.854  17.563   2.269
72594W        W25490  23.123   1.379   0.961
72595W        W25491  12.048  23.389   2.194
72596W        W25492  27.977  35.759   9.324
72597W        W25493  14.826  19.916   3.528
72598W        W25494   1.439  29.870   1.405
72599W        W25495  27.092  29.949   0.706
72600W        W25496  16.702  14.862   1.491
72601W        W25497  20.375  26.595   8.520
72602W        W25498  24.721   6.065   0.633
72603W        W25499   4.416  15.536   0.607
72604W        W25500   0.565  26.718   9.089
72605W        W25501   7.648   9.462   0.356
72606W        W25502   9.342   6.033   2.942
72607W        W25503   0.059  29.317   3.052
72608W        W25504  29.498   9.573   8.348
72609W        W25505  12.541  16.019   1.602
72610W        W25506   3.056   4.738   1.308
72611W        W25507  33.459  31.673   1.549
72612W        W25508  34.671  23.062   1.020
72613W        W25509   2.309  18.265   8.034
72614W        W25510  35.735  17.173   0.867
72615W        W25511   0.806   4.651   1.379
72616W        W25512  30.970  21.658   9.472
72617W        W25513  14.020  16.441  10.163
72618W        W25514  12.418  29.671   2.901
72619W        W25515  20.893   6.536   1.718
72620W        W25516   8.480   9.411   7.559
72621W        W25517  30.961  27.038   1.632
72622W        W25518  17.952  15.370   8.371
72623W        W25519  30.078  26.725   9.864
72624W        W25520  30.841  14.438   3.642
72625W        W25521   6.149   4.122   7.692
72626W        W25522  25.862   5.549   1.665
72627W        W25523  30.290   9.833   8.816
72628W        W25524  13.962   9.528   0.576
72629W        W25525  31.625  28.486   8.878
72630W        W25526  32.295  15.834   0.925
72631W        W25527   3.258   6.387   9.364
72632W        W25528  34.156  31.088   3.635
72633W        W25529  27.160   8.947   8.955
72634W        W25530  30.374  15.328  10.191
72635W        W25531   4.268  13.590   9.186
72636W        W25532  14.128  25.736   0.903
72637W        W25533  14.487  31.083   3.064
72638W        W25534  27.760  13.065   3.281
72639W        W25535  13.509  23.287  10.005
72640W        W25536   9.256  32.812   1.172
72641W        W25537  13.690  10.445   8.366
72642W        W25538   6.244  26.761   8.267
72643W        W25539  33.737  16.021   3.460
72644W        W25540   7.845  15.236   2.947
72645W        W25541  14.045   8.818   1.472
72646W        W25542  26.424  19.467   9.403
72647W        W25543   6.023  15.122   8.066
72648W        W25544   4.866  14.956   2.231
72649W        W25545  15.443  16.204   1.597
72650W        W25546  29.485  11.205   2.101
72651W        W25547  13.301  25.730   8.819
72652W        W25548  12.780  31.942   9.706
72653W        W25549  27.317  35.304   9.922
72654W        W25550   1.748   5.454   0.881
72655W        W25551   0.940  31.765   2.318
72656W        W25552   3.235   7.225   2.228
72657W        W25553  31.605  31.369   9.222
72658W        W25554  17.838   3.419   0.754
72659W        W25555  35.041  14.543   8.322
72660W        W25556  18.561   7.005   8.004
72661W        W25557  24.481  16.021   2.424
72662W        W25558  13.721   0.312   8.445
72663W        W25559  33.701  18.998   2.385
72664W        W25560   9.601   5.615   9.915
72665W        W25561  31.340   2.921   0.228
72666W        W25562   6.284  26.516   1.188
72667W        W25563   5.243  13.596   0.246
72668W        W25564   7.785  27.483  10.175
72669W        W25565  28.960   3.206   8.188
72670W        W25566  33.209  31.570   8.883
72671W        W25567   6.394  10.707   9.007
72672W        W25568   3.439  21.743   3.128
72673W        W25569  15.661  22.677   1.805
72674W        W25570   7.540  31.594   9.790
72675W        W25571  27.034  21.620   0.341
72676W        W25572   3.597   7.170   1.696
72677W        W25573  24.733   5.254   2.080
72678W        W25574  23.981   4.929   8.667
72679W        W25575   6.939  24.317   2.955
72680W        W25576  31.852   4.873   3.407
72681W        W25577   9.480  33.175  10.321
72682W        W25578   7.540  28.352   9.958
72683W        W25579   1.959  26.003   2.071
72684W        W25580  16.343  12.001   1.897
72685W        W25581  22.482   8.969   7.270
72686W        W25582  23.667  17.619   3.642
72687W        W25583  17.009  11.551   1.177
72688W        W25584  20.257  12.469   7.786
72689W        W25585   9.763   6.335   8.503
72690W        W25586  10.821  11.448   2.856
72691W        W25587  11.796   8.686   2.620
72692W        W25588   0.772   4.017   7.452
72693W        W25589  12.918  12.790   2.083
72694W        W25590  19.284  16.655  10.005
72695W        W25591   5.508   7.110   9.480
72696W        W25592  31.961  34.498  10.125
72697W        W25593  15.633  17.896  10.194
72698W        W25594  35.837  16.984   2.944
72699W        W25595   1.525  24.974   8.267
72700W        W25596  14.761  28.877   8.010
72701W        W25597  14.411   2.069   9.118
72702W        W25598   4.712   6.085   1.543
72703W        W25599   3.757  27.777   7.766
72704W        W25600  17.841  24.336   8.925
72705W        W25601   9.953  16.648   9.647
72706W        W25602  30.086  19.445   2.679
72707W        W25603  33.707  32.445   0.977
72708W        W25604   8.625  26.797   9.557
72709W        W25605  18.124   5.542   7.874
72710W        W25606  12.136  15.284   2.078
72711W        W25607  18.884  18.097   9.647
72712W        W25608  25.795  35.102   8.856
72713W        W25609  32.477  30.003   8.331
72714W        W25610   4.609  32.192   1.366
72715W        W25611  13.810   1.123   9.084
72716W        W25612  24.893  10.503   3.101
72717W        W25613   8.284   7.601   7.159
72718W        W25614   5.664  11.264   1.033
72719W        W25615  32.797   3.961   9.477
72720W        W25616   6.657  35.840   8.699
72721W        W25617   2.132  16.066   3.054
72722W        W25618   2.330   1.334   9.435
72723W        W25619  24.027   6.536   2.778
72724W        W25620  27.369  28.582   9.159
72725W        W25621  16.478  34.762   0.243
72726W        W25622  15.436   4.499   3.079
72727W        W25623   7.350  14.335   2.111
72728W        W25624  32.880  17.529   1.945
72729W        W25625  28.331  32.714   9.756
72730W        W25626   5.889  10.822   1.306
72731W        W25627  13.863  13.047   0.771
72732W        W25628  28.500   2.585   0.336
72733W        W25629  23.129  31.866   8.410
72734W        W25630  26.785  10.692   2.304
72735W        W25631   4.692  33.294   9.414
72736W        W25632  24.163   6.692   8.558
72737W        W25633  18.887   2.119   8.237
72738W        W25634  30.502   0.815   8.907
72739W        W25635  29.601   5.982   3.037
72740W        W25636  12.371  31.764   0.363
72741W        W25637  35.491   9.971   1.291
72742W        W25638  17.514  18.372   0.466
72743W        W25639  16.988  15.658   7.381
72744W        W25640  10.367  27.122   9.230
72745W        W25641   6.561   8.610   8.880
72746W        W25642  18.262  12.426   8.596
72747W        W25643  24.536  25.430   9.827
72748W        W25644  12.678  10.375   0.821
72749W        W25645  28.916  17.529   0.575
72750W        W25646  10.118  31.673   0.842
72751W        W25647   3.793  11.148   0.494
72752W        W25648   5.320  17.930   8.798
72753W        W25649  23.436   2.940   1.892
72754W        W25650  13.664  14.449   7.828
72755W        W25651  35.284  15.865   9.789
72756W        W25652  18.959  27.998   1.365
72757W        W25653   0.945  27.294   1.790
72758W        W25654  13.616  30.246   0.977
72759W        W25655  28.788   6.405   9.752
72760W        W25656  22.066   4.349   1.973
72761W        W25657   7.967   9.533   7.556
72762W        W25658  33.560  32.835   8.168
72763W        W25659  35.099   2.559   7.623
72764W        W25660  26.379  15.157   1.866
72765W        W25661  19.221  34.033   8.807
72766W        W25662  17.478   8.768   0.206
72767W        W25663  23.872   5.184   1.001
72768W        W25664  23.519  14.666   7.322
72769W        W25665  32.730  24.458   9.056
72770W        W25666  16.848   1.382   2.432
72771W        W25667  26.832   9.231   8.579
72772W        W25668  25.382   7.136   8.238
72773W        W25669  32.310  24.760   9.030
72774W        W25670  17.485  31.431   2.573
72775W        W25671  31.627  14.314   0.703
72776W        W25672  23.161  12.216   8.642
72777W        W25673  12.846  22.585   7.598
72778W        W25674  21.957  13.300   1.439
72779W        W25675  33.772   8.050   9.305
72780W        W25676  32.614  33.176   2.003
72781W        W25677  35.505  28.333   3.239
72782W        W25678  20.917  15.323   2.172
72783W        W25679  13.767  20.580   3.380
72784W        W25680  15.988   2.396   1.198
72785W        W25681  19.727  24.892   1.289
72786W        W25682  30.400  26.178   0.062
72787W        W25683  33.210  18.666   7.513
72788W        W25684  25.831  17.743   8.884
72789W        W25685  11.817   1.874   9.457
72790W        W25686  31.914   3.540   1.778
72791W        W25687  34.998  30.486   2.024
72792W        W25688   2.494  23.602   8.939
72793W        W25689  22.872  14.533   0.152
72794W        W25690   8.636  21.701   9.183
72795W        W25691  23.622  28.613   0.570
72796W        W25692  28.023   8.270   1.704
72797W        W25693  16.995  19.252   2.090
72798W        W25694  26.682  27.818   9.150
72799W        W25695  27.119   1.177   9.268
72800W        W25696  21.742   4.118   0.451
72801W        W25697   9.409  25.203   7.639
72802W        W25698   5.938   7.477   2.268
72803W        W25699  18.944  32.240   1.498
72804W        W25700  26.044  16.309   9.053
72805W        W25701   9.455  24.918   0.303
72806W        W25702   8.235  15.366   0.414
72807W        W25703  25.928  22.069   2.984
72808W        W25704  34.524  20.169   1.254
72809W        W25705  21.183  30.317   8.317
72810W        W25706  28.250  31.363  10.261
72811W        W25707   2.409  30.966   2.451
72812W        W25708  17.974  24.394   3.009
72813W        W25709  32.828   3.926   2.975
72814W        W25710  23.227  10.101  10.312
72815W        W25711   4.535  30.636   1.682
72816W        W25712  16.940   8.991   1.947
72817W        W25713  31.749  13.365   0.635
72818W        W25714  17.012  34.147   2.292
72819W        W25715  34.829  24.316   3.069
72820W        W25716  19.214  20.211   9.227
72821W        W25717  25.938  16.709   2.275
72822W        W25718   4.897  32.407   1.835
72823W        W25719   3.491  15.488   7.743
72824W        W25720  22.322  31.094   2.253
72825W        W25721  28.698   5.081   2.874
72826W        W25722   1.695  18.470  10.028
72827W        W25723  33.930  30.532   9.741
72828W        W25724  33.688  15.995   1.123
72829W        W25725  21.468  35.633   7.449
72830W        W25726  32.553  21.189   1.282
72831W        W25727   7.916  17.726   0.070
72832W        W25728  25.121  20.063   0.977
72833W        W25729   3.890  23.937   3.044
72834W        W25730   9.479   7.682   1.884
72835W        W25731  35.082  27.973   8.055
72836W        W25732   3.193   5.039   3.327
72837W        W25733  16.336  27.007   9.312
72838W        W25734  27.613  13.363   8.496
72839W        W25735  32.257  18.503   8.483
72840W        W25736  33.955  31.389   0.037
72841W        W25737  14.902   1.117   0.636
72842W        W25738  26.910   8.733   1.177
72843W        W25739   4.235  26.625   0.527
72844W        W25740  22.755  22.574   9.538
72845W        W25741  20.046   2.894   1.537
72846W        W25742  21.697  15.306   3.339
72847W        W25743  33.922  19.883   2.759
72848W        W25744  11.277  16.640   8.605
72849W        W25745   8.407  22.793   7.298
72850W        W25746  17.782  30.121   0.630
72851W        W25747  27.383  32.522   8.701
72852W        W25748  28.385  23.074   9.790
72853W        W25749   5.931   8.226   0.101
72854W        W25750   6.362  28.893   7.032
72855W        W25751   3.782  25.389   8.932
72856W        W25752   3.737  12.224   1.065
72857W        W25753  32.865  20.658   0.076
72858W        W25754  27.940  23.259  10.056
72859W        W25755  20.860   1.120   0.579
72860W        W25756  29.433  19.966   2.791
72861W        W25757   2.211   7.128   3.324
72862W        W25758  12.850  14.778   1.660
72863W        W25759  20.911  26.295   3.081
72864W        W25760  25.311  27.983   8.754
72865W        W25761  32.010  26.362   2.209
72866W        W25762  22.699   4.001   7.657
72867W        W25763  12.952  34.569   2.252
72868W        W25764  32.284  19.621   1.251
72869W        W25765  14.226  33.940   9.767
72870W        W25766  29.172   0.966   2.717
72871W        W25767   2.084  23.941   1.272
72872W        W25768  15.013  21.903   8.597
72873W        W25769  29.770  16.418   2.432
72874W        W25770  35.013  18.613   2.054
72875W        W25771  14.802  25.787   2.267
72876W        W25772   8.278  15.111   2.037
72877W        W25773  26.645   2.379   7.911
72878W        W25774  16.557  35.506   3.188
72879W        W25775  20.196  24.988   3.422
72880W        W25776  16.364  28.903   7.295
72881W        W25777  17.648  28.633   8.878
72882W        W25778  32.314  11.562   7.607
72883W        W25779  12.442   2.645   1.552
72884W        W25780  16.513   8.416   9.551
72885W        W25781  23.297  24.320   2.507
72886W        W25782   5.394  24.410   1.906
72887W        W25783  25.242  21.172   2.180
72888W        W25784  24.914  33.260   8.581
72889W        W25785  34.181   6.514   3.146
72890W        W25786  11.904  34.094   3.401
72891W        W25787  15.586  16.406   0.171
72892W        W25788  22.309  32.959   7.898
72893W        W25789  18.973  13.952   8.027
72894W        W25790  25.459  14.092   9.071
72895W        W25791  20.980  22.508  10.208
72896W        W25792   1.930   8.818   1.092
72897W        W25793   2.600  11.718   2.970
72898W        W25794  34.365  27.314   9.390
72899W        W25795   2.445   3.510   1.367
72900W        W25796  17.456  29.429   2.046
72901W        W25797  21.964   8.274   8.342
72902W        W25798  31.635  23.078   8.472
72903W        W25799  27.478  13.151   2.637
72904W        W25800  17.007  13.902   1.229
72905W        W25801   1.870  32.276   8.714
72906W        W25802  10.374   6.923   2.493
72907W        W25803  18.692   4.920   7.894
72908W        W25804  10.949  28.365   2.348
72909W        W25805   3.968  17.745   0.511
72910W        W25806  14.511  34.505   9.987
72911W        W25807  32.698  18.585   3.947
72912W        W25808  15.443  32.951   2.649
72913W        W25809   3.189  10.592  10.107
72914W        W25810   3.516  24.649   0.458
72915W        W25811  11.729  23.331   1.149
72916W        W25812  35.745  28.539   3.623
72917W        W25813  29.473  30.461   9.225
72918W        W25814  20.590  11.174   0.967
72919W        W25815  11.772  25.328   9.246
72920W        W25816  28.621  30.656   1.548
72921W        W25817  11.460  13.385   8.243
72922W        W25818  14.982  10.375   0.708
72923W        W25819  32.262   5.557   1.641
72924W        W25820   6.005  29.805   9.792
72925W        W25821  14.530  32.786   1.562
72926W        W25822  15.287  22.262   8.442
72927W        W25823   3.202   8.124   3.324
72928W        W25824  13.018  36.008  10.217
72929W        W25825   5.460  18.769   0.441
72930W        W25826  11.378   4.354   7.266
72931W        W25827  23.959  15.875  10.161
72932W        W25828  18.813  27.010   9.612
72933W        W25829  35.060   7.227   7.979
72934W        W25830   8.021   6.471   0.376
72935W        W25831  28.220  34.321   8.331
72936W        W25832  32.987  32.329   2.103
72937W        W25833  35.901   4.452   8.799
72938W        W25834  25.824  19.224   2.382
72939W        W25835  28.743  32.023   7.935
72940W        W25836  27.204   7.996   8.030
72941W        W25837  11.495  14.241  10.127
72942W        W25838  28.947   0.842   0.238
72943W        W25839  23.541  25.636   1.636
72944W        W25840  33.073   5.227   8.931
72945W        W25841  23.938  33.468   2.375
72946W        W25842  29.800   7.864  10.112
72947W        W25843  18.464  33.428   9.647
72948W        W25844  11.938  26.130   8.597
72949W        W25845  31.648  25.741   8.270
72950W        W25846   7.082  16.972   9.871
72951W        W25847  11.079  23.746   1.318
72952W        W25848  35.474  18.794   1.293
72953W        W25849  24.788  22.439   0.931
72954W        W25850  26.089  28.415   1.833
72955W        W25851  14.318  27.268   1.641
72956W        W25852  18.583  33.094   2.610
72957W        W25853  25.105  15.207   0.651
72958W        W25854  24.885   4.839   1.439
72959W        W25855  29.557  26.407   7.442
72960W        W25856   4.634   0.978   7.478
72961W        W25857   4.732   0.959   0.733
72962W        W25858  30.452  13.791   7.886
72963W        W25859  20.779  33.721   9.773
72964W        W25860   7.619   4.615   1.422
72965W        W25861  29.088  35.723   0.719
72966W        W25862  12.532  34.960   2.365
72967W        W25863  10.870  25.569   1.263
72968W        W25864   6.103  14.417   2.839
72969W        W25865   6.963  15.649   2.191
72970W        W25866  28.976   7.057   0.819
72971W        W25867  15.270  13.269   9.728
72972W        W25868   3.786  14.039   1.826
72973W        W25869  18.449  22.711   9.360
72974W        W25870  29.245   1.555   0.622
72975W        W25871   1.495  22.397   0.726
72976W        W25872   0.275  21.687   2.581
72977W        W25873  13.266  13.823   0.528
72978W        W25874  12.447  35.389   7.758
72979W        W25875   5.303  34.234   9.450
72980W        W25876  31.362  21.321   1.615
72981W        W25877  33.420  16.214   9.077
72982W        W25878  28.439  24.006   8.616
72983W        W25879   3.983  24.955   8.208
72984W        W25880  33.422   6.132   8.410
72985W        W25881  30.023  17.483   1.460
72986W        W25882  19.096  18.778  10.296
72987W        W25883  14.853  10.709   9.319
72988W        W25884  23.194   6.569   2.233
72989W        W25885  27.232  25.818   9.572
72990W        W25886  27.483  20.998   0.775
72991W        W25887   9.028  32.377  10.056
72992W        W25888   7.097  30.052   1.924
72993W        W25889  10.279   1.916   0.223
72994W        W25890   3.627   6.712   8.005
72995W        W25891  20.951  14.340   2.151
72996W        W25892  24.316  12.841   7.999
72997W        W25893   5.983  10.827   8.455
72998W        W25894   7.859  14.550   1.413
72999W        W25895   9.662  29.084   7.735
73000W        W25896  24.426  29.386   0.321
73001W        W25897  18.952  35.322  10.172
73002W        W25898  10.805   3.665   8.870
73003W        W25899   9.215   5.141   8.667
73004W        W25900  23.161   0.131   9.265
73005W        W25901  11.041   5.114   9.126
73006W        W25902  32.576   2.904   3.036
73007W        W25903  20.754  17.076   0.378
73008W        W25904   8.408  19.825   3.541
73009W        W25905   7.543  19.122   7.609
73010W        W25906  17.145   8.164   0.865
73011W        W25907  11.999  29.978  10.019
73012W        W25908  12.836   9.102   9.972
73013W        W25909  23.998   3.714   1.964
73014W        W25910  13.565  26.360  10.212
73015W        W25911  21.101  33.978   3.664
73016W        W25912  23.716  16.836   8.484
73017W        W25913  18.777   1.652   3.068
73018W        W25914  22.859  14.510   2.214
73019W        W25915  14.801  19.098   2.058
73020W        W25916   7.303  20.973   1.241
73021W        W25917  18.513  23.179   2.200
73022W        W25918   1.447  24.329   1.770
73023W        W25919  10.663  31.215  10.051
73024W        W25920  26.515   8.117   8.738
73025W        W25921  17.782  24.503  10.217
73026W        W25922   3.669  32.088   3.202
73027W        W25923  28.226  13.404   0.722
73028W        W25924   4.778  28.454   9.654
73029W        W25925  28.987  11.260  10.112
73030W        W25926  19.072   7.611   1.291
73031W        W25927  25.810  32.871   8.138
73032W        W25928  17.186  35.562   2.265
73033W        W25929  24.098  35.855   1.445
73034W        W25930  34.978  27.981   1.207
73035W        W25931   6.174   9.509   8.123
73036W        W25932  32.904   3.115   2.700
73037W        W25933   5.316   5.169   2.535
73038W        W25934  27.669  14.592   8.497
73039W        W25935  10.298  19.059   8.801
73040W        W25936   2.834  16.773  10.006
73041W        W25937  27.648  22.206   9.273
73042W        W25938  15.344   8.150   9.469
73043W        W25939   5.819  31.719   8.876
73044W        W25940  10.071   8.818   8.867
73045W        W25941  33.729   8.912   1.862
73046W        W25942  25.782   3.327   1.132
73047W        W25943  23.170  19.131   8.021
73048W        W25944   8.109  28.520   8.753
73049W        W25945  33.327   8.177   1.627
73050W        W25946  22.385  13.642   8.155
73051W        W25947  13.399   6.276   9.501
73052W        W25948  13.621  13.487  10.009
73053W        W25949   9.336   4.397  10.202
73054W        W25950  28.230  35.550   2.530
73055W        W25951  13.753   5.900   9.356
73056W        W25952  11.725   8.334  10.258
73057W        W25953   2.340  27.300   3.075
73058W        W25954  32.794  35.794   8.662
73059W        W25955   2.504  12.480   8.613
73060W        W25956  29.434  33.695   9.795
73061W        W25957  33.441   1.587   2.996
73062W        W25958  13.839   6.522   1.058
73063W        W25959  19.636  10.708   3.179
73064W        W25960  34.411   7.151   1.584
73065W        W25961   8.377   2.805   2.377
73066W        W25962  11.167   9.765   1.828
73067W        W25963  32.205  33.487   2.104
73068W        W25964   0.464  21.395   2.169
73069W        W25965  19.379  25.678   7.431
73070W        W25966  11.682  22.932   1.488
73071W        W25967  30.292  26.914   2.077
73072W        W25968  16.036  26.355   1.144
73073W        W25969  24.748   1.437   2.605
73074W        W25970  12.173   3.667   0.232
73075W        W25971   7.441  12.504   0.790
73076W        W25972  23.720  35.841   8.592
73077W        W25973  11.834   2.835   2.503
73078W        W25974   8.136   4.961   8.375
73079W        W25975  34.080   7.746   0.327
73080W        W25976  28.253  33.143   2.215
73081W        W25977   6.671  12.484   2.848
73082W        W25978  20.570  16.687   9.993
73083W        W25979   7.325  10.175   2.819
73084W        W25980  12.898   0.623   0.679
73085W        W25981   8.030  26.596   0.092
73086W        W25982  10.158   1.608   0.610
73087W        W25983  20.774   3.379   7.355
73088W        W25984  18.530   6.384   0.858
73089W        W25985  12.167  18.133   1.271
73090W        W25986  27.503  23.542   9.999
73091W        W25987   5.355  19.175   9.737
73092W        W25988  28.147  27.617   8.750
73093W        W25989  16.802  34.728   2.753
73094W        W25990   8.716   6.737   1.756
73095W        W25991  17.358   4.777   1.653
73096W        W25992  15.799   3.406   3.432
73097W        W25993  29.558  20.725   1.506
73098W        W25994   7.572  18.659   1.195
73099W        W25995  29.945   4.032   2.203
73100W        W25996  27.675  33.481   8.028
73101W        W25997  10.309  29.503   8.048
73102W        W25998   1.053  24.834   8.076
73103W        W25999   1.955  33.068   8.464
73104W        W26000   9.612  35.213   9.376
73105W        W26001  14.488  29.735   1.250
73106W        W26002  25.001  22.028   7.442
73107W        W26003  30.631  31.519   0.853
73108W        W26004  20.677  29.580   7.539
73109W        W26005   7.832  25.875   1.520
73110W        W26006   4.494  34.376   8.310
73111W        W26007  15.108   3.961   2.998
73112W        W26008  21.840  33.305   7.999
73113W        W26009  24.662  17.593   0.817
73114W        W26010   6.007   1.989   3.784
73115W        W26011  34.345  31.032   2.264
73116W        W26012  29.705   7.591   1.754
73117W        W26013   8.926  23.395   2.697
73118W        W26014  29.507  35.493   8.230
73119W        W26015  23.909  32.818   7.205
73120W        W26016  27.865  20.751   2.130
73121W        W26017  19.095   8.859   9.995
73122W        W26018   1.876  17.950   8.675
73123W        W26019   7.431  23.711   9.826
73124W        W26020   4.285   2.919   3.235
73125W        W26021  19.892  24.187   3.560
73126W        W26022   1.578  23.518   9.578
73127W        W26023   0.113   3.858   9.747
73128W        W26024   5.783   6.080   1.393
73129W        W26025  18.576   1.039   9.147
73130W        W26026  33.988  22.225   1.536
73131W        W26027  35.732  21.191   3.652
73132W        W26028  12.535  11.963   1.149
73133W        W26029  35.109   4.962   1.596
73134W        W26030  15.818   3.819   1.728
73135W        W26031  19.451  19.375   0.481
73136W        W26032  19.654  21.990   8.762
73137W        W26033  32.032  18.921   8.102
73138W        W26034  32.036   2.223   9.930
73139W        W26035  32.941   0.204   7.221
73140W        W26036  29.251   2.212   0.701
73141W        W26037  20.522   1.146   1.452
73142W        W26038  26.899  32.260   1.587
73143W        W26039  17.631   6.547   3.373
73144W        W26040  28.203  15.434   7.585
73145W        W26041  17.675   9.982   9.088
73146W        W26042  36.005   3.032   2.268
73147W        W26043   4.315  14.744   7.648
73148W        W26044   9.303  13.273   1.741
73149W        W26045  30.173  22.350   7.464
73150W        W26046  24.053   9.109   0.448
73151W        W26047  17.628  33.911   0.533
73152W        W26048   5.539  34.675   0.812
73153W        W26049  32.310  21.195   0.226
73154W        W26050  32.919  18.632   2.255
73155W        W26051  20.228  29.049   1.022
73156W        W26052  32.074  21.230   8.759
73157W        W26053  20.381  27.658   2.188
73158W        W26054   9.844   3.065   2.072
73159W        W26055  21.334   7.873   2.332
73160W        W26056  23.722   7.924   0.127
73161W        W26057  16.619  23.024   0.836
73162W        W26058  18.233   4.650   7.496
73163W        W26059  10.927  14.343   9.388
73164W        W26060  30.418   9.659   3.379
73165W        W26061   0.454  32.235   0.850
73166W        W26062  18.629   2.431   0.511
73167W        W26063  31.036  23.714   1.213
73168W        W26064  26.104  29.068   0.526
73169W        W26065  11.665  20.323   1.725
73170W        W26066   1.292  10.167   0.864
73171W        W26067  11.710  26.994   3.057
73172W        W26068  24.865   7.228  10.300
73173W        W26069   5.446  30.107   0.781
73174W        W26070   0.768  10.908   8.390
73175W        W26071  22.761  25.562   2.919
73176W        W26072  27.404   6.438  10.192
73177W        W26073  18.474  11.829   1.229
73178W        W26074  22.824   9.624   3.636
73179W        W26075  33.996  18.904   9.598
73180W        W26076  11.635   0.623   8.502
73181W        W26077  31.995  25.976   7.997
73182W        W26078   0.675  19.860   2.274
73183W        W26079   5.317  19.111   0.926
73184W        W26080  18.138   7.282   7.904
73185W        W26081  30.253   0.374   9.555
73186W        W26082  13.109   0.803   1.095
73187W        W26083  20.151  14.166   9.160
73188W        W26084  19.414  33.691   9.224
73189W        W26085  13.422  35.863   2.101
73190W        W26086  23.370  15.688   2.458
73191W        W26087  27.879  27.280   0.135
73192W        W26088  31.805  23.673   9.446
73193W        W26089   7.975  24.878   2.318
73194W        W26090  18.612   1.958  10.092
73195W        W26091  15.358   0.361   8.285
73196W        W26092  21.647   7.219   9.762
73197W        W26093  11.348   3.704   2.252
73198W        W26094  21.244  16.276   0.810
73199W        W26095  21.681  19.372   2.378
73200W        W26096  12.843   1.536   1.451
73201W        W26097   4.927   0.374   1.508
73202W        W26098   2.925   5.931   0.945
73203W        W26099  15.016  28.547   9.137
73204W        W26100  34.983  20.743   8.821
73205W        W26101   7.926  31.319   8.855
73206W        W26102   2.763  34.874   1.305
73207W        W26103  19.530  27.981   1.761
73208W        W26104  32.377  28.886   9.132
73209W        W26105  32.939   7.566   3.253
73210W        W26106  28.510  15.949   1.597
73211W        W26107  17.052   5.462   2.797
73212W        W26108  24.039  28.667   9.520
73213W        W26109   8.651   0.921   9.810
73214W        W26110  33.179   1.137   1.008
73215W        W26111   7.894  22.312   9.348
73216W        W26112  12.918  18.442   9.005
73217W        W26113  14.724   4.167   2.223
73218W        W26114   4.264   2.148   8.741
73219W        W26115  31.491   5.563   3.361
73220W        W26116  13.239  21.718   9.194
73221W        W26117  22.476  10.949   2.636
73222W        W26118  26.395  34.339   8.475
73223W        W26119  14.879  26.156   1.260
73224W        W26120  14.672  24.343   0.990
73225W        W26121  19.858  10.710   0.996
73226W        W26122   2.182  11.755  10.160
73227W        W26123  28.792  35.857   8.809
73228W        W26124  27.849   5.378   2.467
73229W        W26125  28.632   9.984   1.128
73230W        W26126  18.846  29.485   1.047
73231W        W26127   0.219  18.856  10.202
73232W        W26128   4.261  11.879  10.275
73233W        W26129   4.762  23.763   7.994
73234W        W26130  15.159  32.787   8.553
73235W        W26131  16.077  34.531   8.034
73236W        W26132  15.297   1.423   0.722
73237W        W26133  15.525  12.148   2.114
73238W        W26134   4.622   9.962   3.791
73239W        W26135  22.076   5.598   0.168
73240W        W26136  32.272  22.428   9.659
73241W        W26137   5.768   0.103   8.550
73242W        W26138  21.992   1.677   9.972
73243W        W26139  31.110  23.218  10.165
73244W        W26140  15.395  33.085   1.248
73245W        W26141  15.181  20.690   0.015
73246W        W26142   1.916  17.561   2.780
73247W        W26143  13.382  25.751   2.866
73248W        W26144   8.173  17.519   0.481
73249W        W26145  27.064  25.581   0.736
73250W        W26146  10.360  28.217   1.666
73251W        W26147  11.640  15.245  10.262
73252W        W26148  32.665  14.925   8.353
73253W        W26149  21.124  11.780   7.986
73254W        W26150  25.436   4.429   8.788
73255W        W26151  19.156  11.604   2.481
73256W        W26152   8.412   6.076   8.758
73257W        W26153  30.648  23.531   8.078
73258W        W26154  14.738   8.606  10.061
73259W        W26155  17.125  15.224   7.215
73260W        W26156  20.850   4.496   0.839
73261W        W26157  30.762   3.712   8.573
73262W        W26158   0.856  20.043   9.145
73263W        W26159   7.927  13.870   9.803
73264W        W26160  11.027   9.189  10.281
73265W        W26161  29.867  19.714   3.292
73266W        W26162  29.487  22.281   9.620
73267W        W26163   6.127   4.861   8.252
73268W        W26164   2.310  14.434   0.753
73269W        W26165   1.452   4.602   7.923
73270W        W26166  24.016  33.856   1.021
73271W        W26167  30.570  29.703   1.580
73272W        W26168  26.449  12.230   1.262
73273W        W26169   7.283  11.709   0.139
73274W        W26170   4.242  24.496   1.793
73275W        W26171  18.473  27.694   8.493
73276W        W26172  10.843  27.969   7.386
73277W        W26173   5.948  10.166   9.811
73278W        W26174   8.995  14.950   1.015
73279W        W26175  24.827  11.576   7.423
73280W        W26176  28.288  34.730   2.019
73281W        W26177  15.179  27.531   1.497
73282W        W26178  12.461  32.757   2.943
73283W        W26179  18.158  15.089   9.920
73284W        W26180  30.735  24.055   8.158
73285W        W26181   2.344  15.615   9.229
73286W        W26182  24.311  11.742   1.723
73287W        W26183  27.853  25.345   7.431
73288W        W26184  24.457  21.902   9.545
73289W        W26185   8.126  26.327   0.524
73290W        W26186   5.620  13.459   1.721
73291W        W26187  18.114  11.686   2.756
73292W        W26188  12.382   3.473   2.045
73293W        W26189  14.012  13.117  10.137
73294W        W26190  16.076   3.065   8.858
73295W        W26191  15.604  33.511  10.293
73296W        W26192   3.806  10.110   3.713
73297W        W26193   3.321  16.190   9.447
73298W        W26194  22.818  18.484   3.162
73299W        W26195  23.424  26.956   1.597
73300W        W26196   0.013  20.782   3.350
73301W        W26197  19.933   7.147   3.520
73302W        W26198   5.553  30.275   1.691
73303W        W26199   0.194  27.972   9.442
73304W        W26200  15.065  18.264  10.082
73305W        W26201  25.787   1.033   3.450
73306W        W26202  28.537  32.098   1.297
73307W        W26203  11.899  18.957   1.253
73308W        W26204   4.098  27.569   8.171
73309W        W26205  17.772   3.838   8.331
73310W        W26206  23.735  22.391   1.544
73311W        W26207  31.933  15.824   9.310
73312W        W26208  20.911  10.670   0.139
73313W        W26209  14.921  11.354   9.998
73314W        W26210  32.500  24.528   2.030
73315W        W26211  11.619  12.366   8.354
73316W        W26212  28.491   5.373   0.530
73317W        W26213   9.201  33.354   0.835
73318W        W26214   3.229   5.615   9.841
73319W        W26215  20.527   0.901   1.844
73320W        W26216  18.917  25.182   7.821
73321W        W26217   9.118  26.674   0.372
73322W        W26218   3.280  30.559   2.724
73323W        W26219  26.907  13.808   0.883
73324W        W26220  33.699   8.392   9.696
73325W        W26221   0.827   8.407   8.912
73326W        W26222   4.177   3.260  10.088
73327W        W26223  35.640  16.590   1.207
73328W        W26224  30.572  11.139   8.964
73329W        W26225   7.783  29.326   1.215
73330W        W26226  14.335  12.050   9.011
73331W        W26227   2.454  23.296   9.364
73332W        W26228   3.883  29.755  10.196
73333W        W26229  13.565  32.735   2.805
73334W        W26230  19.744   4.491   0.998
73335W        W26231  25.530  15.855  10.293
73336W        W26232   8.181  30.309   2.576
73337W        W26233  26.666  11.275   7.696
73338W        W26234  12.825  28.700   8.382
73339W        W26235  32.821  22.195   3.359
73340W        W26236   0.451  17.413   9.234
73341W        W26237  24.068   3.144  10.107
73342W        W26238   2.435  28.940   8.282
73343W        W26239  34.176  18.847   3.734
73344W        W26240  29.155   7.142   2.175
73345W        W26241  28.245  15.202   8.215
73346W        W26242  14.760  18.763   0.681
73347W        W26243  27.382  31.819  10.291
73348W        W26244  16.244  11.786   9.607
73349W        W26245   4.207  10.119   2.478
73350W        W26246  13.787  15.396   0.108
73351W        W26247  15.425   3.076   1.172
73352W        W26248  22.602   5.701   3.193
73353W        W26249  16.029   7.957   1.666
73354W        W26250  29.226   1.602   9.585
73355W        W26251   6.224  31.485   8.106
73356W        W26252   8.673  12.340   0.173
73357W        W26253   3.892  25.484   1.140
73358W        W26254  29.788  17.938   0.467
73359W        W26255  24.009  24.630   9.039
73360W        W26256  16.378   1.942   1.705
73361W        W26257  21.828  26.952  10.311
73362W        W26258  20.852  21.797   2.471
73363W        W26259  26.238  22.722   8.559
73364W        W26260   0.054  33.143   2.456
73365W        W26261  21.774  21.262   9.717
73366W        W26262   7.464   8.783   7.711
73367W        W26263  13.743  32.255   9.350
73368W        W26264  29.554  19.385  10.240
73369W        W26265  28.298  13.836   3.380
73370W        W26266  31.424  15.908   2.901
73371W        W26267  15.321  30.743   8.627
73372W        W26268  14.283  32.807   9.778
73373W        W26269  11.215  31.215  10.164
73374W        W26270  35.953  25.519   0.001
73375W        W26271  19.197  27.350   7.798
73376W        W26272  24.412  14.781   9.488
73377W        W26273  10.429   7.690   8.494
73378W        W26274  33.092   0.545   9.623
73379W        W26275  20.469  20.990   8.963
73380W        W26276  34.240  35.355   0.485
73381W        W26277  17.354  24.045   4.033
73382W        W26278   0.553  22.284   8.686
73383W        W26279  32.435  13.743   0.204
73384W        W26280  22.061  10.178   8.537
73385W        W26281  35.622   9.614   8.297
73386W        W26282  10.475  30.936   1.098
73387W        W26283  28.893   8.888   7.787
73388W        W26284   2.937  33.124   9.755
73389W        W26285   2.492  23.744   0.030
73390W        W26286   2.540  27.192   1.681
73391W        W26287  22.164   4.841   8.635
73392W        W26288  19.922  31.626   9.610
73393W        W26289  31.484  24.188   2.703
73394W        W26290   5.986   7.458   9.445
73395W        W26291   0.695   9.941   1.905
73396W        W26292  30.313  31.558   0.419
73397W        W26293  33.712  31.454   9.951
73398W        W26294  21.400  24.606  10.093
73399W        W26295  23.342   9.397   1.119
73400W        W26296   9.354   2.389   1.082
73401W        W26297  18.856  24.227   9.505
73402W        W26298  21.770   4.510   8.616
73403W        W26299  26.031  32.779   1.578
73404W        W26300   2.271   5.363   0.928
73405W        W26301   9.774  26.996   1.779
73406W        W26302  27.521  32.550   2.057
73407W        W26303   8.592  30.079   8.644
73408W        W26304   1.451  21.154   1.020
73409W        W26305  16.763  15.397   1.552
73410W        W26306  24.169  17.379   0.634
73411W        W26307  21.643  30.548   9.352
73412W        W26308   6.416   9.812   0.785
73413W        W26309  21.496  25.741   3.626
73414W        W26310   0.884  32.110   8.849
73415W        W26311   6.202  20.209   3.915
73416W        W26312  25.261  23.788   2.101
73417W        W26313  17.654   8.684   9.826
73418W        W26314   5.605  18.621  10.326
73419W        W26315  25.990  33.357   8.805
73420W        W26316  35.502  14.502   1.647
73421W        W26317  31.631  30.063   9.751
73422W        W26318  30.057  27.571   1.964
73423W        W26319  23.574   2.733   8.035
73424W        W26320   7.783  14.568   1.995
73425W        W26321   6.016  15.945   9.597
73426W        W26322  28.491  32.644   9.183
73427W        W26323  30.975   0.277   9.057
73428W        W26324  29.151   3.310   2.110
73429W        W26325  17.477   7.844   2.028
73430W        W26326  13.588   4.471   1.141
73431W        W26327   5.793  32.618   9.339
73432W        W26328  31.756  29.414   0.560
73433W        W26329  30.805  12.255   1.184
73434W        W26330  13.793  19.143   2.932
73435W        W26331   0.858  11.887   8.870
73436W        W26332  26.691  11.865   2.832
73437W        W26333  29.789  31.952   1.739
73438W        W26334  22.822  28.154   2.405
73439W        W26335   9.320  15.329   1.134
73440W        W26336   4.086   6.131   0.201
73441W        W26337   8.199   2.753  10.153
73442W        W26338  31.056  17.364   9.199
73443W        W26339  24.215  25.388   2.137
73444W        W26340  28.278   7.536   8.004
73445W        W26341  16.107   2.652   2.052
73446W        W26342  20.675  29.446   0.263
73447W        W26343  22.716   7.979   1.829
73448W        W26344  33.369  29.486   1.954
73449W        W26345   4.615   9.580  10.217
73450W        W26346  21.043  23.036   0.749
73451W        W26347   1.109  17.207   8.569
73452W        W26348   4.729  13.513   0.085
73453W        W26349  28.144  14.995   1.951
73454W        W26350  34.095  27.608   8.039
73455W        W26351   5.270   8.590   8.282
73456W        W26352   4.339   7.683   1.609
73457W        W26353  20.620  15.908   9.482
73458W        W26354   8.892  26.427   7.953
73459W        W26355   2.161  13.391   3.539
73460W        W26356  19.160   1.812   7.636
73461W        W26357   8.806  18.573   2.872
73462W        W26358  12.441  35.950   2.621
73463W        W26359   4.716  10.909   3.513
73464W        W26360  32.140  25.834   8.487
73465W        W26361  29.827  16.091   9.949
73466W        W26362   1.507  34.034   3.385
73467W        W26363  22.047   1.960   0.973
73468W        W26364  12.721  34.252   2.988
73469W        W26365  26.347   7.028   7.219
73470W        W26366  27.564   6.834   3.617
73471W        W26367   6.115  24.240   9.048
73472W        W26368   1.994  11.932   3.048
73473W        W26369  20.137  35.658   1.066
73474W        W26370  27.711   0.188   7.610
73475W        W26371  29.709   8.920   0.108
73476W        W26372   5.228  17.627   0.799
73477W        W26373  26.097   6.635   0.291
73478W        W26374  27.066  20.064   2.415
73479W        W26375  18.217   4.657   8.835
73480W        W26376  27.789  18.426   2.606
73481W        W26377   5.268  19.651   9.164
73482W        W26378  25.148   0.525   8.808
73483W        W26379  18.064  35.456   7.816
73484W        W26380  12.840   7.528   2.171
73485W        W26381  17.861  25.890   8.180
73486W        W26382  15.478  29.687   1.436
73487W        W26383  25.983  12.550   3.220
73488W        W26384  11.195  18.880   7.646
73489W        W26385  32.220  13.686   1.291
73490W        W26386  25.123  11.554   8.495
73491W        W26387  11.765   4.792   8.067
73492W        W26388  19.465  29.990   0.702
73493W        W26389   6.287  13.825   8.026
73494W        W26390   2.142   9.924   0.368
73495W        W26391  19.772  13.189   9.112
73496W        W26392   7.563  12.247   9.958
73497W        W26393  35.880  18.582   3.230
73498W        W26394  31.525  20.820   2.004
73499W        W26395  11.997  11.400   8.507
73500W        W26396  34.448  27.262   7.849
73501W        W26397   5.551   5.776   9.376
73502W        W26398   5.192  28.561   7.602
73503W        W26399   3.131  14.207   2.517
73504W        W26400  16.732  27.389   0.025
73505W        W26401  23.359  33.584   3.309
73506W        W26402  30.273  12.516   9.419
73507W        W26403  19.775  23.153   8.021
73508W        W26404   3.114  23.367   1.114
73509W        W26405   7.940  33.790   7.582
73510W        W26406  15.361   0.815   0.722
73511W        W26407   9.654  16.402   2.624
73512W        W26408  17.380  25.404   0.769
73513W        W26409  24.027   6.696   1.531
73514W        W26410  34.643   9.062   7.674
73515W        W26411   3.253  29.006   0.439
73516W        W26412  11.874  17.800   2.202
73517W        W26413  24.689  29.377   1.754
73518W        W26414  25.109  24.050   8.815
73519W        W26415  28.013  17.600   2.660
73520W        W26416  32.040  12.689   2.054
73521W        W26417  20.899  16.444   1.195
73522W        W26418  12.289  32.083   9.315
73523W        W26419  32.628  26.216   2.768
73524W        W26420  18.334  26.787   0.989
73525W        W26421  18.692  21.674   8.696
73526W        W26422  21.541   7.335   7.751
73527W        W26423  30.780  15.523   2.535
73528W        W26424  28.766  32.858   9.581
73529W        W26425   5.642  21.457   1.666
73530W        W26426   2.075  32.081   0.174
73531W        W26427   5.233  31.432   9.643
73532W        W26428  14.759   6.318   9.417
73533W        W26429  31.145  31.525   7.353
73534W        W26430   5.699  33.380   2.224
73535W        W26431  13.267  13.612   2.428
73536W        W26432  34.378  21.799   2.695
73537W        W26433   8.250  18.663   1.107
73538W        W26434  12.949   2.032  10.021
73539W        W26435  27.085  18.794   8.779
73540W        W26436  17.737   9.483   8.681
73541W        W26437  30.623  12.509   0.256
73542W        W26438  30.470  33.617   8.453
73543W        W26439  31.437  16.512   0.654
73544W        W26440  11.161   1.729   0.290
73545W        W26441  15.457  19.820   7.140
73546W        W26442  27.658  10.338   8.764
73547W        W26443   6.869  13.113   9.577
73548W        W26444  23.243   9.979   2.145
73549W        W26445  13.724  16.266   3.687
73550W        W26446  12.635   5.351   2.883
73551W        W26447   8.273  33.523   8.311
73552W        W26448  28.400  35.677   3.809
73553W        W26449  35.615  28.033   2.385
73554W        W26450  26.090   1.674   2.180
73555W        W26451   0.941  21.481  10.330
73556W        W26452  21.492  19.068   2.921
73557W        W26453  33.443  19.396   0.242
73558W        W26454  10.380  19.561   7.927
73559W        W26455  32.851  23.520   9.141
73560W        W26456  25.647   5.257   9.428
73561W        W26457  24.597  32.312   9.021
73562W        W26458  14.219  17.817   7.608
73563W        W26459  30.350  32.689   1.646
73564W        W26460  22.805  25.914   3.228
73565W        W26461   2.826  27.518   9.590
73566W        W26462   2.865  27.156   8.509
73567W        W26463   0.314  15.758   3.533
73568W        W26464  34.305   9.452   8.486
73569W        W26465  22.319  27.676   0.484
73570W        W26466   2.240  29.594   0.054
73571W        W26467   4.567   3.508   0.690
73572W        W26468   1.742  33.661   1.919
73573W        W26469  11.815  35.389   8.850
73574W        W26470  20.836  10.608   2.061
73575W        W26471  24.870   6.077   0.140
73576W        W26472   6.482  31.338   1.908
73577W        W26473   3.059  23.012   3.411
73578W        W26474  20.326  14.936   2.945
73579W        W26475  29.695  22.334   1.133
73580W        W26476  34.411  15.091   9.238
73581W        W26477  16.921   5.996   7.893
73582W        W26478  13.783   1.768   8.547
73583W        W26479  24.565  21.080  10.328
73584W        W26480  15.293  33.761   8.184
73585W        W26481  17.913  13.344   3.324
73586W        W26482  20.395   2.766   2.964
73587W        W26483   2.933  17.725   7.740
73588W        W26484  23.524   8.908   3.190
73589W        W26485  31.346  21.441   2.148
73590W        W26486  24.352  10.424   1.854
73591W        W26487  23.897   6.306   8.007
73592W        W26488  34.334  17.465   9.062
73593W        W26489  14.488  10.365   2.137
73594W        W26490  29.914   2.178   8.313
73595W        W26491  30.416  30.373  10.222
73596W        W26492  22.659  26.527   0.723
73597W        W26493  21.246  29.591  10.338
73598W        W26494  16.377  15.250   7.922
73599W        W26495  20.308  17.101   8.853
73600W        W26496   4.408  35.660   8.875
73601W        W26497   2.529   3.811   0.916
73602W        W26498  29.663  33.558   0.961
73603W        W26499  23.069  25.141   9.301
73604W        W26500  11.877   1.374   9.162
73605W        W26501  28.531  29.836   7.975
73606W        W26502  25.551  10.553   1.945
73607W        W26503  30.760   7.301   0.575
73608W        W26504  35.302  25.389   8.084
73609W        W26505  26.137  18.203   8.821
73610W        W26506  19.850  30.685   0.008
73611W        W26507  19.704  31.036   2.177
73612W        W26508  28.078   1.611   2.283
73613W        W26509  14.962  33.055   1.502
73614W        W26510  31.068  14.937   2.513
73615W        W26511  22.567  20.330   8.590
73616W        W26512  27.716  33.736  10.011
73617W        W26513  22.861   8.334  10.080
73618W        W26514  33.577   9.793   2.136
73619W        W26515  22.390  33.632   2.061
73620W        W26516  32.003  20.699   2.718
73621W        W26517   7.808  29.806   9.623
73622W        W26518  14.084  18.036   8.411
73623W        W26519  30.393   2.704   1.984
73624W        W26520  15.078  28.411   8.646
73625W        W26521  24.466   7.170   0.578
73626W        W26522  24.888  10.898   2.650
73627W        W26523  29.830   1.286   3.290
73628W        W26524  19.315  33.064  10.075
73629W        W26525  29.501   4.987   9.161
73630W        W26526  25.882  16.170   0.167
73631W        W26527  26.360   6.245   9.730
73632W        W26528  27.638  31.023   6.826
73633W        W26529   2.171  35.591   8.973
73634W        W26530  30.790  21.861   6.898
73635W        W26531   0.636  20.860   8.542
73636W        W26532  19.572   9.155   8.042
73637W        W26533   7.410  24.122   6.866
73638W        W26534   7.144   9.385   9.432
73639W        W26535  16.609  34.243   8.935
73640W        W26536  32.698  24.490   1.148
73641W        W26537  35.908  31.232   1.667
73642W        W26538  21.902  21.741  10.198
73643W        W26539  25.660  13.150   8.958
73644W        W26540  16.362   6.094   0.452
73645W        W26541  31.151  12.018   3.308
73646W        W26542   1.471  27.310   2.525
73647W        W26543   0.047  15.359   8.115
73648W        W26544  18.512  23.304   0.205
73649W        W26545  16.693  12.756   8.379
73650W        W26546   4.027  16.668   9.119
73651W        W26547  33.202   5.735   8.653
73652W        W26548   6.488   2.694   1.162
73653W        W26549  29.843   7.148   0.699
73654W        W26550  18.399  24.275   9.281
73655W        W26551  15.149  20.019   3.112
73656W        W26552  31.740  13.377   1.166
73657W        W26553  35.801  18.277   9.385
73658W        W26554  30.265   2.423   9.947
73659W        W26555  31.854   9.620   0.474
73660W        W26556  20.104  20.932  10.183
73661W        W26557   6.227  33.026   7.747
73662W        W26558  17.744  29.525   8.965
73663W        W26559  24.219  20.144   0.318
73664W        W26560  27.942  19.688   7.379
73665W        W26561   1.466  20.328   3.305
73666W        W26562  23.547  32.901   1.853
73667W        W26563  18.088  14.925   0.171
73668W        W26564   7.814   1.261   9.101
73669W        W26565  21.968  30.782   7.446
73670W        W26566  24.761  20.175   7.782
73671W        W26567  32.559  17.164   2.810
73672W        W26568  32.508  22.868   8.659
73673W        W26569  21.484  21.629   2.111
73674W        W26570  19.255  31.881   3.911
73675W        W26571  25.124  18.503   8.899
73676W        W26572   5.732  34.501   9.702
73677W        W26573  23.266  21.039   1.486
73678W        W26574  15.174   1.843   0.949
73679W        W26575  14.605  12.001   3.966
73680W        W26576  30.798  23.164   8.413
73681W        W26577   8.002  21.005   1.836
73682W        W26578   9.533  23.366   0.580
73683W        W26579  17.111  14.598   0.451
73684W        W26580   4.630  16.427   2.887
73685W        W26581  35.911  28.959   2.130
73686W        W26582  32.495  17.290   0.875
73687W        W26583  28.798  11.595   2.695
73688W        W26584  33.436   0.281   0.814
73689W        W26585  25.014   7.294   1.285
73690W        W26586  10.229  29.863   7.750
73691W        W26587  18.065  15.219   1.544
73692W        W26588  28.776  18.776   9.139
73693W        W26589   8.475  16.874   1.529
73694W        W26590  17.279   5.959   0.224
73695W        W26591   9.178  31.121   0.126
73696W        W26592  17.576  14.892   8.964
73697W        W26593   4.531  11.487   2.727
73698W        W26594  23.927  25.126   8.209
73699W        W26595   6.632  18.260   8.261
73700W        W26596  11.546  25.178   8.834
73701W        W26597  12.905  35.408   1.519
73702W        W26598  34.134  16.812   1.437
73703W        W26599   6.342   9.605   7.639
73704W        W26600  32.500  11.023   0.641
73705W        W26601  13.155  14.698   9.300
73706W        W26602   2.383   8.196   9.791
73707W        W26603  14.323  18.341   3.046
73708W        W26604   9.939  25.449   8.913
73709W        W26605  30.216  27.692   2.790
73710W        W26606   5.329   0.028  10.075
73711W        W26607  32.760  13.659   1.327
73712W        W26608  25.569  34.041   3.344
73713W        W26609   7.092   2.362   0.348
73714W        W26610   9.063  27.315   2.457
73715W        W26611  31.296   6.195   7.862
73716W        W26612  21.465  22.368   0.546
73717W        W26613   0.357  29.579   1.868
73718W        W26614  31.817  27.562   7.697
73719W        W26615  15.825  11.786   2.367
73720W        W26616  18.953  12.804   7.212
73721W        W26617   1.251  15.678   7.939
73722W        W26618  32.980   0.420   2.162
73723W        W26619  16.708   7.204   8.055
73724W        W26620  14.626  34.728   1.291
73725W        W26621  21.060  18.818   3.796
73726W        W26622  30.606  26.033   8.034
73727W        W26623  12.517  21.094   8.906
73728W        W26624  31.144  20.515   2.285
73729W        W26625  34.442  14.561   9.438
73730W        W26626  22.522  17.733   1.847
73731W        W26627  13.193  16.637   9.658
73732W        W26628  14.079  11.765   1.758
73733W        W26629  26.662   8.150   9.544
73734W        W26630  32.464  35.511   1.088
73735W        W26631  26.137  17.278   1.598
73736W        W26632  24.038   7.513   1.093
73737W        W26633   5.795   5.379   2.520
73738W        W26634   2.995   6.525   9.720
73739W        W26635   8.685   5.536   9.984
73740W        W26636   6.405  23.734   9.316
73741W        W26637   3.021  35.686   8.402
73742W        W26638   4.649  19.128   6.886
73743W        W26639  33.515  35.440   0.013
73744W        W26640  31.683  22.402   0.756
73745W        W26641  17.262  26.513   8.809
73746W        W26642  24.533   5.280   8.420
73747W        W26643  13.044  28.319   7.227
73748W        W26644  15.284   5.399   9.509
73749W        W26645  31.288  28.783  10.195
73750W        W26646  32.101  24.414   8.291
73751W        W26647  31.505  22.918  10.000
73752W        W26648  10.779  12.834   4.177
73753W        W26649  12.914   8.550   2.218
73754W        W26650  26.490  16.839   0.991
73755W        W26651  34.781  34.270   9.933
73756W        W26652  32.816  18.613   3.363
73757W        W26653  33.821  26.763   9.840
73758W        W26654   1.747   8.941   8.074
73759W        W26655   3.372  28.614   9.582
73760W        W26656  26.328  30.855   8.662
73761W        W26657   0.678  35.590   7.674
73762W        W26658  28.999  27.181   9.052
73763W        W26659  13.957  25.708   0.257
73764W        W26660  17.468  19.604   9.866
73765W        W26661  28.499   1.494   0.130
73766W        W26662   8.879   6.905   8.734
73767W        W26663   8.096   1.925   2.277
73768W        W26664   9.301  30.092   0.734
73769W        W26665  15.756  24.623   2.751
73770W        W26666  33.392  27.082   8.517
73771W        W26667  27.732  14.493   7.948
73772W        W26668   7.588   8.237   9.598
73773W        W26669  31.127  34.177   0.468
73774W        W26670  30.162  31.929   7.499
73775W        W26671  26.892  11.345   8.460
73776W        W26672  12.861   4.115  10.135
73777W        W26673  32.389  28.096   8.524
73778W        W26674  12.415  10.595   2.852
73779W        W26675   0.230   4.969   8.076
73780W        W26676   9.466  31.925   1.593
73781W        W26677  35.455  33.131   1.949
73782W        W26678   9.587  27.165   2.560
73783W        W26679  12.743   2.417   0.775
73784W        W26680  25.642   0.002   2.389
73785W        W26681  31.745   7.638   1.020
73786W        W26682  26.123  34.730   8.580
73787W        W26683  24.815   2.221   1.070
73788W        W26684  23.911  12.712   3.044
73789W        W26685  28.269   4.661   2.614
73790W        W26686  14.285  26.036   2.266
73791W        W26687  17.874  28.121   7.340
73792W        W26688   5.358  16.842   9.241
73793W        W26689  26.090  34.723   7.807
73794W        W26690  31.432  33.714   2.362
73795W        W26691  29.770  17.206   0.443
73796W        W26692  31.181  15.140   3.387
73797W        W26693  11.564  35.515   7.925
73798W        W26694  26.628  31.880   3.132
73799W        W26695   2.884   3.100   7.490
73800W        W26696   3.490   6.088   2.494
73801W        W26697   4.471  31.098   9.355
73802W        W26698  32.155   4.239   8.184
73803W        W26699  14.954  26.045  10.227
73804W        W26700  31.702   4.448   2.006
73805W        W26701   9.481  30.551   9.059
73806W        W26702   8.852  28.934   9.569
73807W        W26703   0.515  31.393  10.175
73808W        W26704  31.556  12.580   2.540
73809W        W26705  26.658   1.559   3.228
73810W        W26706  24.199  19.802   9.833
73811W        W26707   5.437  21.635   9.094
73812W        W26708  28.659   3.636   7.970
73813W        W26709  10.198   6.211   2.489
73814W        W26710  15.974  18.042   2.431
73815W        W26711  18.882  22.716   7.853
73816W        W26712  20.148   4.404   9.565
73817W        W26713  32.666  15.578   1.218
73818W        W26714  15.258  11.945  10.161
73819W        W26715  11.794   2.319   8.517
73820W        W26716   1.459  21.031   8.691
73821W        W26717  29.167  25.976   8.435
73822W        W26718   6.908  15.597   1.684
73823W        W26719  11.863  35.853   6.834
73824W        W26720  31.866   5.691   2.357
73825W        W26721  25.932  29.799   8.598
73826W        W26722  22.757  33.326   1.813
73827W        W26723  15.041  34.375   0.653
73828W        W26724  26.614  29.100   8.445
73829W        W26725  26.735  15.121   8.821
73830W        W26726  20.309   1.891   9.084
73831W        W26727  16.143   3.919   0.908
73832W        W26728  31.984  19.866   8.731
73833W        W26729   3.246   3.863   0.982
73834W        W26730  27.304  27.286   3.416
73835W        W26731  32.964  11.005   1.851
73836W        W26732   0.863  17.031   1.295
73837W        W26733   1.872  17.057   2.171
73838W        W26734   5.342   4.895   0.719
73839W        W26735  19.343  22.859   3.815
73840W        W26736  20.470  22.098   9.020
73841W        W26737   7.766  30.767   0.413
73842W        W26738   9.976   8.114   3.151
73843W        W26739  25.558  16.660   9.600
73844W        W26740  33.754   0.326   8.338
73845W        W26741  22.162   6.613  10.195
73846W        W26742   7.094  16.580   7.440
73847W        W26743   5.921   6.762   0.469
73848W        W26744  18.911  31.030   9.128
73849W        W26745  11.835  24.998   7.360
73850W        W26746  32.730   1.599   2.603
73851W        W26747  29.272  31.906  10.289
73852W        W26748  16.923   5.928   3.078
73853W        W26749   0.954  27.865   2.368
73854W        W26750  15.292  24.743   0.444
73855W        W26751  13.049   2.242   2.567
73856W        W26752  33.243  33.741   9.761
73857W        W26753  24.701  35.137   2.025
73858W        W26754   2.893   7.242  10.162
73859W        W26755  34.280  35.655   9.892
73860W        W26756  21.943  33.366  10.282
73861W        W26757  20.677  33.393   2.576
73862W        W26758  33.896   7.325   7.467
73863W        W26759  29.161  13.361   2.216
73864W        W26760  27.307   8.364   9.272
73865W        W26761   5.269  26.464   9.413
73866W        W26762  20.423   9.200   9.990
73867W        W26763  33.363   5.168   3.465
73868W        W26764  29.128  13.366   8.988
73869W        W26765  33.908  10.523  10.100
73870W        W26766  30.496  26.407   1.121
73871W        W26767   9.658  18.802   9.420
73872W        W26768  21.461  33.255   3.576
73873W        W26769   0.237  22.438   0.381
73874W        W26770  24.312  34.694   3.695
73875W        W26771   4.741   9.192   2.020
73876W        W26772  20.268  25.106   1.627
73877W        W26773  27.584   1.840   2.397
73878W        W26774   7.698  10.860   1.483
73879W        W26775  20.800   8.059   2.097
73880W        W26776  28.441   4.770   3.206
73881W        W26777   6.009   9.393   3.796
73882W        W26778   9.044  18.111   9.535
73883W        W26779   0.381  33.993   7.069
73884W        W26780   4.621   7.310   9.889
73885W        W26781  12.566   7.405   9.833
73886W        W26782   6.759  30.181   8.655
73887W        W26783  28.218  10.276   7.275
73888W        W26784  30.772  20.943   8.356
73889W        W26785  33.557  28.938   2.831
73890W        W26786   9.229   8.283   9.170
73891W        W26787  21.408  11.953   2.311
73892W        W26788  16.953  13.684   3.224
73893W        W26789   9.215   9.979   7.467
73894W        W26790  20.585   1.093  10.097
73895W        W26791  18.398   5.332   1.397
73896W        W26792  22.338   3.027   3.373
73897W        W26793   8.846   6.940   2.208
73898W        W26794  32.499  12.338   0.346
73899W        W26795  34.109  26.512   0.448
73900W        W26796   7.920  34.204   9.218
73901W        W26797   1.527  23.731   0.436
73902W        W26798  29.613  22.268   2.882
73903W        W26799  23.750  26.372   8.521
73904W        W26800   0.102  13.470   8.511
73905W        W26801  12.333  11.563   0.698
73906W        W26802  24.918   1.158  10.149
73907W        W26803  18.052  30.696   1.379
73908W        W26804  20.682  15.673   7.869
73909W        W26805  15.125  19.457   9.319
73910W        W26806  27.463  30.710   2.045
73911W        W26807   0.712  35.565   3.424
73912W        W26808   0.184  25.915   0.162
73913W        W26809  28.175  28.181   0.560
73914W        W26810   2.740  17.668  10.261
73915W        W26811   5.969  29.644   2.943
73916W        W26812   7.025  11.493   8.977
73917W        W26813  34.355  30.679   3.922
73918W        W26814  26.013   3.785   0.943
73919W        W26815  19.759  32.356   8.178
73920W        W26816  16.392  33.238   8.308
73921W        W26817   8.149  16.217   1.778
73922W        W26818   3.175  12.005   3.655
73923W        W26819  23.975   9.035   8.249
73924W        W26820   0.718  10.301   3.341
73925W        W26821  13.095  15.236   0.579
73926W        W26822   4.376  13.168   2.547
73927W        W26823  25.567  24.677   9.441
73928W        W26824  11.940  29.699   9.517
73929W        W26825   9.444   2.700   0.278
73930W        W26826  20.827  17.908   3.696
73931W        W26827  16.826   8.208   9.152
73932W        W26828   1.560  22.065   1.739
73933W        W26829  22.936  31.623   3.330
73934W        W26830   7.009  12.651   7.785
73935W        W26831  34.295  16.582   9.347
73936W        W26832  30.773  19.583   8.421
73937W        W26833  12.610  19.533   8.258
73938W        W26834  20.129  14.572  10.132
73939W        W26835   8.194  31.960   7.965
73940W        W26836  31.686  30.959   9.580
73941W        W26837  29.767  12.904   1.033
73942W        W26838   6.499  25.617   8.267
73943W        W26839  35.710  24.085   2.069
73944W        W26840  23.438  21.477   9.824
73945W        W26841  33.838   7.874   7.272
73946W        W26842  10.507  32.688   9.833
73947W        W26843  13.744  31.467   0.881
73948W        W26844  21.656  15.407   9.423
73949W        W26845   8.351  12.809   1.557
73950W        W26846  17.879  17.563   1.764
73951W        W26847   9.075   6.353   7.678
73952W        W26848  11.930   6.398   2.420
73953W        W26849  31.303  27.033   2.908
73954W        W26850  20.324  15.717   8.956
73955W        W26851  32.447  29.889   0.920
73956W        W26852  22.707  26.058   8.970
73957W        W26853  23.981  18.564   2.511
73958W        W26854   5.893   9.180   9.983
73959W        W26855  10.330   9.407   2.199
73960W        W26856  21.693  10.073   0.249
73961W        W26857  18.234  21.201   0.839
73962W        W26858  23.348   5.057   2.182
73963W        W26859   5.014  21.127   9.245
73964W        W26860  27.852  15.827   2.706
73965W        W26861   3.984  33.709   2.050
73966W        W26862  18.418  17.213   8.028
73967W        W26863  12.475  19.876   2.016
73968W        W26864  20.221  29.230   1.454
73969W        W26865  23.479  22.884   8.189
73970W        W26866  25.629  15.977   0.962
73971W        W26867  23.895  34.852   9.385
73972W        W26868  30.294  28.187   9.656
73973W        W26869  19.479  28.585   2.641
73974W        W26870   8.961  21.330   9.323
73975W        W26871   3.530  31.276  10.281
73976W        W26872  15.289  31.149  10.331
73977W        W26873  17.290   8.897   9.509
73978W        W26874   9.042   3.393   2.342
73979W        W26875  12.559  35.866   0.949
73980W        W26876  16.598  33.088   0.842
73981W        W26877  30.280   7.460   3.216
73982W        W26878  23.075   4.971   3.496
73983W        W26879   1.394  34.967   1.907
73984W        W26880  13.351  30.276   1.985
73985W        W26881  30.816   9.437   9.861
73986W        W26882  10.364  15.625  10.138
73987W        W26883   7.425   6.381   1.881
73988W        W26884   6.641  31.437   9.324
73989W        W26885  11.911  10.741   0.041
73990W        W26886  14.865  24.760   0.678
73991W        W26887  17.974   0.690   1.649
73992W        W26888  26.271   8.630   0.194
73993W        W26889  16.601  14.631  10.226
73994W        W26890  20.052   3.693   9.836
73995W        W26891  13.211  28.977   1.589
73996W        W26892  31.463  27.549   2.709
73997W        W26893  34.496  30.736   2.634
73998W        W26894  19.064  31.311   7.820
73999W        W26895  12.942   7.019   7.959
74000W        W26896  17.104  35.050   2.413
74001W        W26897   0.425  26.236   8.378
74002W        W26898  34.245  22.417   8.873
74003W        W26899  23.650  33.546  10.320
74004W        W26900  28.332  14.348   9.691
74005W        W26901  23.994  10.213   9.507
74006W        W26902   0.454  14.223   2.346
74007W        W26903  13.345  14.066   0.028
74008W        W26904  18.597   6.982   3.124
74009W        W26905  20.300  30.908   2.811
74010W        W26906  17.116  31.742   2.386
74011W        W26907  25.692  31.097   9.240
74012W        W26908  15.537   0.499   0.351
74013W        W26909   7.270   6.470   1.125
74014W        W26910  25.187  14.232   1.878
74015W        W26911  28.780  26.693   1.831
74016W        W26912   7.626  22.658   7.660
74017W        W26913  11.245  22.798   7.471
74018W        W26914  15.808  33.126   7.773
74019W        W26915   2.802  12.893   2.141
74020W        W26916  14.807  18.803   1.184
74021W        W26917   0.455  15.261   2.890
74022W        W26918  32.631  17.419  10.145
74023W        W26919  21.891   9.620   0.304
74024W        W26920  16.057  25.955   8.664
74025W        W26921   4.151  35.175   2.922
74026W        W26922  25.633  29.769   1.486
74027W        W26923  15.098   7.199   1.016
74028W        W26924  15.946  28.375   9.663
74029W        W26925   2.744  15.166   0.260
74030W        W26926   3.265  22.183   8.376
74031W        W26927  31.149  31.309   2.312
74032W        W26928  20.251  16.949   8.349
74033W        W26929  23.282  22.383   2.505
74034W        W26930   8.729  13.004   3.330
74035W        W26931   2.615   7.653  10.261
74036W        W26932  14.991   5.320   2.860
74037W        W26933  26.047  33.696   0.594
74038W        W26934   9.079  18.683   9.417
74039W        W26935   2.605   5.970   8.246
74040W        W26936  29.888  23.542   1.043
74041W        W26937  13.063  24.289   0.554
74042W        W26938   5.843   5.594   7.572
74043W        W26939   3.425  20.466   0.291
74044W        W26940   4.563  33.053   0.334
74045W        W26941  25.691  25.311   9.955
74046W        W26942  31.074   6.448   2.532
74047W        W26943  34.925   3.539   9.709
74048W        W26944  33.559   3.935   9.178
74049W        W26945  19.779  30.745   1.762
74050W        W26946  11.542  33.902   8.789
74051W        W26947  10.873  24.574   8.716
74052W        W26948   6.947  35.912   9.170
74053W        W26949   7.643  34.190   0.107
74054W        W26950   8.571  15.495  10.012
74055W        W26951  25.793   9.553   8.537
74056W        W26952  18.466  31.447   2.730
74057W        W26953  25.571   1.056   1.683
74058W        W26954  32.435  18.115   0.702
74059W        W26955   0.725  30.338   2.149
74060W        W26956  23.094   2.450   2.541
74061W        W26957   3.648  18.355   2.878
74062W        W26958  34.672   0.423   9.724
74063W        W26959   6.587  13.007   2.127
74064W        W26960  25.526  31.061   2.792
74065W        W26961  12.535  24.982   1.657
74066W        W26962  15.496  23.305   0.632
74067W        W26963  32.034   7.981   2.106
74068W        W26964  34.761   7.423  10.317
74069W        W26965  28.302  19.182   2.354
74070W        W26966   6.603   7.934   1.885
74071W        W26967  34.350   4.137   8.692
74072W        W26968  34.833  29.285   9.639
74073W        W26969  26.317  22.255   1.296
74074W        W26970  13.669  34.611   1.525
74075W        W26971  26.261  26.284   0.645
74076W        W26972   8.085  19.271   2.620
74077W        W26973   5.555  15.756   0.172
74078W        W26974  18.159   7.363   1.924
74079W        W26975  20.376   6.974   1.334
74080W        W26976  18.044  27.503   8.129
74081W        W26977  27.394  27.047   8.822
74082W        W26978  14.906   6.387   9.899
74083W        W26979   4.451   5.218   1.159
74084W        W26980  14.027  11.500  10.037
74085W        W26981  12.442   1.220   1.331
74086W        W26982  12.659  20.893   1.188
74087W        W26983  17.542  24.966   7.700
74088W        W26984  20.774  15.940   7.394
74089W        W26985  11.159   1.139   7.808
74090W        W26986   0.331  21.589   0.731
74091W        W26987   6.004  25.202   9.919
74092W        W26988  10.624  28.332   0.688
74093W        W26989  27.823  32.667   0.389
74094W        W26990   6.039  34.690   0.860
74095W        W26991  32.738  23.161   1.809
74096W        W26992  19.933  35.899   8.827
74097W        W26993  34.596  34.330   1.280
74098W        W26994  20.400  20.112   9.165
74099W        W26995  19.324  24.096   0.017
74100W        W26996  21.454  19.014   9.285
74101W        W26997  13.053  18.764   3.629
74102W        W26998   1.476  13.551   9.834
74103W        W26999  13.267  21.817   7.806
74104W        W27000  26.752  24.227   0.953
74105W        W27001  31.389  23.646   8.815
74106W        W27002  20.036  18.247   9.425
74107W        W27003  25.274  34.102   2.971
74108W        W27004  15.613   2.815   2.206
74109W        W27005  25.288  31.331   7.126
74110W        W27006   4.171  32.739   2.861
74111W        W27007  19.554  26.921   3.687
74112W        W27008   0.904  32.292   0.144
74113W        W27009  19.779  15.342   7.865
74114W        W27010   1.659   1.491   2.632
74115W        W27011  27.779  21.911   2.399
74116W        W27012   2.617  24.989   8.378
74117W        W27013  25.101  28.605   1.157
74118W        W27014   3.257  11.279   8.684
74119W        W27015  14.210  20.631   8.691
74120W        W27016   8.299  14.602   1.218
74121W        W27017  17.720  35.399  10.202
74122W        W27018  22.473  35.621   8.194
74123W        W27019  32.634  12.581   7.671
74124W        W27020   3.275  30.318   0.932
74125W        W27021  16.850   3.530  10.153
74126W        W27022  10.805  34.943   1.865
74127W        W27023   8.397  22.129   8.327
74128W        W27024   6.262   2.911   3.209
74129W        W27025  25.250  19.913   1.848
74130W        W27026  15.185   0.359   2.727
74131W        W27027  15.044  17.785   8.674
74132W        W27028  16.408   9.090   3.294
74133W        W27029  12.122  27.138   9.458
74134W        W27030  15.442  21.161   9.239
74135W        W27031  31.148  25.777   1.229
74136W        W27032  30.481  11.540  10.272
74137W        W27033   6.626  10.391   2.329
74138W        W27034  11.026   1.202   9.494
74139W        W27035   1.378  11.131   7.877
74140W        W27036  25.665  21.532   9.250
74141W        W27037  10.363  11.427   2.578
74142W        W27038   8.122  24.394   0.554
74143W        W27039   9.314  20.773   9.194
74144W        W27040   1.971   5.139   0.545
74145W        W27041   1.330  13.125   8.473
74146W        W27042  14.612  12.501   9.770
74147W        W27043  14.008  22.140   8.792
74148W        W27044   7.400  13.323   2.371
74149W        W27045  29.178  12.082   1.278
74150W        W27046  34.364  24.164   8.610
74151W        W27047  30.877  34.437   7.532
74152W        W27048  29.548   2.269   7.777
74153W        W27049  17.018  16.212   3.476
74154W        W27050   2.226  17.593   0.975
74155W        W27051  23.906  15.210  10.205
74156W        W27052  26.292  12.933   9.406
74157W        W27053   6.677  30.118   3.078
74158W        W27054  17.923   0.568   9.889
74159W        W27055  35.421  33.930   0.681
74160W        W27056   8.171  22.785   0.274
74161W        W27057  18.860  15.296   9.552
74162W        W27058  29.458  18.967   8.683
74163W        W27059  30.887  14.519   9.005
74164W        W27060   7.150   8.896   1.148
74165W        W27061  34.234  18.349   8.687
74166W        W27062  12.471  33.880   8.609
74167W        W27063  29.155  31.833   7.051
74168W        W27064  26.660  24.096  10.201
74169W        W27065  19.481  22.976   8.377
74170W        W27066  31.570  24.012   7.592
74171W        W27067   2.887  32.484   8.912
74172W        W27068  17.883   5.329   8.991
74173W        W27069  10.829  11.988   8.374
74174W        W27070  25.762  28.688   1.263
74175W        W27071  24.871  10.585   4.096
74176W        W27072  22.951   1.928   2.657
74177W        W27073   3.345  31.247   9.603
74178W        W27074  34.513  35.545   0.955
74179W        W27075  20.687  31.731   8.925
74180W        W27076  29.185  10.538   0.009
74181W        W27077  22.805  33.155   9.398
74182W        W27078  35.340  24.598   9.422
74183W        W27079  26.720  18.354   8.129
74184W        W27080   4.654  13.024   3.544
74185W        W27081  18.155  10.743   9.956
74186W        W27082  13.712  19.394   9.650
74187W        W27083  10.902  16.933   1.468
74188W        W27084   2.234  21.368   3.121
74189W        W27085  16.240  30.883   7.820
74190W        W27086  11.309  34.837   1.085
74191W        W27087  19.371   8.867   3.097
74192W        W27088   5.946   5.147   0.728
74193W        W27089  16.285  23.398   9.503
74194W        W27090  17.766  29.089  10.098
74195W        W27091  15.602  31.174   9.049
74196W        W27092  18.832   3.241   7.669
74197W        W27093  18.459  14.628   1.434
74198W        W27094  16.081  27.153   0.494
74199W        W27095  25.094  31.134   0.670
74200W        W27096  29.928  21.901  10.078
74201W        W27097   5.395  34.233   2.420
74202W        W27098   4.503  33.179   9.846
74203W        W27099  23.615  18.657   1.980
74204W        W27100  21.223  11.581   2.663
74205W        W27101  25.287  28.330   9.169
74206W        W27102  27.358  22.649   9.486
74207W        W27103  32.216   8.564   9.355
74208W        W27104  10.516  11.603   8.386
74209W        W27105  31.770  13.398   2.365
74210W        W27106   1.747  20.110   1.112
74211W        W27107  30.837  17.460   1.960
74212W        W27108  11.303  35.198   9.198
74213W        W27109  33.942  28.410   3.562
74214W        W27110  24.917  18.844   1.417
74215W        W27111   6.486   8.374   3.593
74216W        W27112   2.167  34.053   9.897
74217W        W27113   2.075   5.886   2.684
74218W        W27114  23.261  17.640   0.842
74219W        W27115   6.058  10.486   1.801
74220W        W27116  33.029  34.355   8.446
74221W        W27117  22.850   0.083   8.674
74222W        W27118  35.785   4.990   3.047
74223W        W27119  13.952  32.332   7.520
74224W        W27120  25.113  31.161   8.488
74225W        W27121   3.668  34.247   9.376
74226W        W27122  35.558  10.147   9.560
74227W        W27123   2.020  35.824   9.429
74228W        W27124  10.948   9.115   0.979
74229W        W27125  22.570  35.306   3.034
74230W        W27126  34.568  31.254   8.864
74231W        W27127  23.991  16.977   3.243
74232W        W27128  35.625  17.031   2.008
74233W        W27129  29.596   1.842   7.967
74234W        W27130   7.550  32.142   0.748
74235W        W27131  34.180   1.302   0.934
74236W        W27132  34.589  10.898   8.396
74237W        W27133   4.538  18.868   9.616
74238W        W27134  29.844  33.949   1.220
74239W        W27135  35.942  23.044   8.832
74240W        W27136  23.260  16.231   8.679
74241W        W27137  32.851   5.569   0.366
74242W        W27138  31.562  31.857   9.061
74243W        W27139  31.725  12.059   0.138
74244W        W27140  24.686  29.499   0.961
74245W        W27141  29.439  13.127   8.650
74246W        W27142  22.866  29.172   7.216
74247W        W27143  26.681  23.887   1.864
74248W        W27144  10.956  12.899   8.340
74249W        W27145   2.178  18.799   8.770
74250W        W27146  31.915  29.450   0.083
74251W        W27147   4.132  34.069   9.482
74252W        W27148  20.124   2.491   3.820
74253W        W27149   4.405   5.374   2.228
74254W        W27150  29.298  18.107   1.368
74255W        W27151  28.510  16.563   1.619
74256W        W27152  30.042   6.649   3.228
74257W        W27153   2.580  27.676  10.116
74258W        W27154   4.450   3.007   9.212
74259W        W27155  26.155  25.024   2.650
74260W        W27156  35.976  24.647   0.061
74261W        W27157  17.431   9.116   0.563
74262W        W27158   8.258  25.218   2.561
74263W        W27159  16.633   8.825   0.360
74264W        W27160  30.498  11.361   3.052
74265W        W27161  20.426  20.631   0.155
74266W        W27162  32.955  15.000   9.670
74267W        W27163  17.519  14.625   0.091
74268W        W27164   5.644  18.023   7.142
74269W        W27165   4.592   7.516   8.961
74270W        W27166  16.220  35.012   9.252
74271W        W27167  32.436  27.031   8.665
74272W        W27168  25.995  17.200   2.621
74273W        W27169  34.104  28.602   9.990
74274W        W27170  17.491  15.327   3.002
74275W        W27171  29.671  29.283   3.392
74276W        W27172   2.014  10.711   9.775
74277W        W27173   8.287  18.503   0.656
74278W        W27174  34.432  29.125   1.237
74279W        W27175  31.496  21.994   8.524
74280W        W27176   1.398  16.294  10.083
74281W        W27177  28.067   7.362   2.535
74282W        W27178  23.736   7.124   8.636
74283W        W27179  35.666  21.075   1.196
74284W        W27180  26.688  19.166  10.173
74285W        W27181  33.086  17.762   1.588
74286W        W27182   0.725  29.302   2.000
74287W        W27183   1.735   5.506   8.151
74288W        W27184   2.988  19.346   1.003
74289W        W27185  13.343  27.175   1.896
74290W        W27186   5.021  28.657   1.851
74291W        W27187  22.081  23.128   7.191
74292W        W27188  29.738  30.459   8.172
74293W        W27189  30.599  14.739   2.392
74294W        W27190  32.775   6.523   1.831
74295W        W27191  35.113  20.297   3.228
74296W        W27192  12.140  14.255   0.475
74297W        W27193  31.768  25.043   1.884
74298W        W27194  10.989  15.988   9.027
74299W        W27195  14.462  35.905   1.463
74300W        W27196  12.506  32.706   9.857
74301W        W27197  22.657   3.818   3.439
74302W        W27198  34.315  21.607   2.258
74303W        W27199  31.045  35.005   0.738
74304W        W27200   4.701   6.084   2.070
74305W        W27201  23.080   0.679   2.529
74306W        W27202  20.588  11.466   9.606
74307W        W27203  10.814  24.514   2.113
74308W        W27204  27.131   2.392   9.934
74309W        W27205   6.990  30.546   2.290
74310W        W27206   9.665  18.403   0.845
74311W        W27207   9.678  17.660   1.514
74312W        W27208   8.377   5.220   2.073
74313W        W27209  14.078  33.062   9.010
74314W        W27210  28.707  17.006   0.426
74315W        W27211   2.656   9.323   3.090
74316W        W27212   1.486  14.999   1.742
74317W        W27213  10.300  30.147   7.306
74318W        W27214  34.793  22.932   8.463
74319W        W27215   0.691  34.295   8.811
74320W        W27216   4.222  10.295   1.564
74321W        W27217   8.533   5.564   1.227
74322W        W27218   7.896  27.989  10.024
74323W        W27219   9.696  33.840   8.944
74324W        W27220  16.304  35.904   1.374
74325W        W27221   1.982  14.797   1.603
74326W        W27222  10.551  27.340   1.292
74327W        W27223  17.380   9.125   8.664
74328W        W27224  31.960  18.759   7.565
74329W        W27225  21.238  20.298   1.108
74330W        W27226  10.618  10.144   0.229
74331W        W27227  29.988  29.167   8.215
74332W        W27228  20.430   6.389  10.304
74333W        W27229  33.054   3.750  10.002
74334W        W27230  16.142  17.888   8.560
74335W        W27231  10.986  25.921   7.516
74336W        W27232   0.783  35.660   8.195
74337W        W27233   7.525  14.787   0.685
74338W        W27234   5.791  13.483   9.337
74339W        W27235  29.535  24.270   7.794
74340W        W27236   1.625   5.239   1.719
74341W        W27237   9.646  28.624   7.900
74342W        W27238  11.669   7.755   9.867
74343W        W27239  34.431  14.176   1.008
74344W        W27240  20.546  31.068   1.894
74345W        W27241  33.453  21.028   3.444
74346W        W27242  28.552  20.247  10.320
74347W        W27243   1.414  34.056   7.849
74348W        W27244   0.436  12.903   2.835
74349W        W27245   6.509  17.981   1.780
74350W        W27246   9.811   8.893   9.702
74351W        W27247   9.336  30.352   8.548
74352W        W27248   6.962  33.053   1.682
74353W        W27249   2.781  11.167   9.125
74354W        W27250  15.033  18.439   2.413
74355W        W27251  15.058   7.725   8.924
74356W        W27252  17.370  20.600   0.931
74357W        W27253  21.643   0.193   8.033
74358W        W27254   5.807   1.825   8.249
74359W        W27255  14.474  21.742   2.013
74360W        W27256  19.185  16.431   8.998
74361W        W27257   8.974   1.219   0.127
74362W        W27258  20.078   0.346   8.952
74363W        W27259  13.990  28.188   2.483
74364W        W27260   5.443   8.100   2.494
74365W        W27261  26.429  28.028   8.746
74366W        W27262  28.844  15.839   0.767
74367W        W27263   4.054  35.589   9.412
74368W        W27264  10.622  26.801   9.615
74369W        W27265  24.523  14.077   8.653
74370W        W27266  22.054   0.013   7.738
74371W        W27267  12.339  19.871   1.455
74372W        W27268  20.475   0.938   0.929
74373W        W27269   7.244  14.489   0.239
74374W        W27270  17.373   6.249   1.637
74375W        W27271   6.301  11.194   9.607
74376W        W27272  12.969  32.691   9.244
74377W        W27273  35.756   7.953   1.664
74378W        W27274  30.745  27.976   8.960
74379W        W27275  29.000  28.773   2.396
74380W        W27276   1.791  28.993   8.780
74381W        W27277  27.434  24.258   7.959
74382W        W27278  32.284  29.106   0.212
74383W        W27279  32.864   6.714   2.650
74384W        W27280  31.588   1.460   8.507
74385W        W27281  32.175  12.427   7.615
74386W        W27282   8.119  22.547   8.933
74387W        W27283  21.083  19.034   1.016
74388W        W27284  20.613  16.797   1.445
74389W        W27285   6.535   6.316   1.747
74390W        W27286  21.489  32.333   0.157
74391W        W27287  22.460  16.039   3.083
74392W        W27288   3.358  22.309   9.750
74393W        W27289   6.603  13.722  10.190
74394W        W27290   4.718  25.616   0.694
74395W        W27291   1.332   1.223   1.793
74396W        W27292  30.401  30.156   2.346
74397W        W27293  19.574  30.806   1.246
74398W        W27294  32.253  34.421   2.812
74399W        W27295  21.362  17.700   1.933
74400W        W27296  33.153  26.888   3.064
74401W        W27297   5.244  34.767   2.656
74402W        W27298  27.982  17.745   0.310
74403W        W27299   0.257   9.171   0.421
74404W        W27300  22.230  32.479   2.044
74405W        W27301  14.191   5.222   7.516
74406W        W27302  22.632  10.660   9.370
74407W        W27303  27.804  24.776   2.253
74408W        W27304  13.165  15.881   9.365
74409W        W27305  20.388  14.191   9.846
74410W        W27306   1.953  19.822   0.588
74411W        W27307  22.765  13.711   0.376
74412W        W27308  11.589   9.476   3.665
74413W        W27309  19.628  11.969   2.117
74414W        W27310  25.720  33.144   1.770
74415W        W27311  31.150  34.013   1.838
74416W        W27312   3.719  14.916   1.451
74417W        W27313  29.682   4.188  10.148
74418W        W27314  17.760   5.067   9.440
74419W        W27315  15.921  35.128   8.193
74420W        W27316  12.620  21.729   1.841
74421W        W27317  18.917   9.243  10.234
74422W        W27318  16.489   2.800   9.545
74423W        W27319  15.856  12.812   2.126
74424W        W27320  28.147  18.068   0.779
74425W        W27321  17.818  24.275   8.368
74426W        W27322  32.289  18.054   2.924
74427W        W27323   6.474  35.440   1.198
74428W        W27324  29.006  30.299   2.428
74429W        W27325  25.734  15.412   1.193
74430W        W27326  21.642  15.079   2.874
74431W        W27327  29.403  15.821   9.045
74432W        W27328  25.295  31.862   7.051
74433W        W27329  10.910  30.943   0.458
74434W        W27330  30.516   1.474   7.719
74435W        W27331  18.734  24.226   2.902
74436W        W27332  16.114   0.417   9.759
74437W        W27333   4.336  19.438   1.981
74438W        W27334  31.611   8.340   3.123
74439W        W27335  13.883  35.034   9.718
74440W        W27336  30.351  18.746   8.356
74441W        W27337  35.803  14.334  10.119
74442W        W27338  19.123  11.825   0.303
74443W        W27339  29.189  27.466   8.539
74444W        W27340   0.963  24.506   2.850
74445W        W27341  14.467  31.402   2.139
74446W        W27342  33.775   3.703   9.577
74447W        W27343  24.102  29.168   9.785
74448W        W27344  18.857  16.112   1.747
74449W        W27345   2.811  27.575   1.225
74450W        W27346  21.907  16.475   9.285
74451W        W27347  16.753  23.177   9.968
74452W        W27348  27.131  35.637   9.569
74453W        W27349  11.437  34.509  10.123
74454W        W27350   5.645  20.773   9.733
74455W        W27351   7.928  14.563   8.353
74456W        W27352  20.695  25.073   1.918
74457W        W27353  18.918  18.686   2.787
74458W        W27354  25.411  21.346   1.758
74459W        W27355  14.046  29.284   9.920
74460W        W27356   4.319  13.599   7.783
74461W        W27357   8.828  24.983   9.335
74462W        W27358  19.485  15.205  10.263
74463W        W27359   8.148  32.812   9.996
74464W        W27360   5.525  16.156   9.726
74465W        W27361  23.873  26.677   3.401
74466W        W27362  16.638  13.694   9.302
74467W        W27363  16.782   0.701   8.874
74468W        W27364   2.101   5.691   0.619
74469W        W27365  17.242   6.994   9.379
74470W        W27366  21.373  27.281   2.963
74471W        W27367  10.758   0.092   2.509
74472W        W27368   1.197  35.950   9.217
74473W        W27369  17.414  26.586   8.320
74474W        W27370  21.652   8.123   3.090
74475W        W27371  27.133  25.347   9.378
74476W        W27372   6.417  27.751   8.625
74477W        W27373   5.664  35.677   1.000
74478W        W27374  22.301  14.439   2.533
74479W        W27375  20.934  20.976   9.228
74480W        W27376   0.119  19.382   1.402
74481W        W27377   4.731  12.306   7.665
74482W        W27378  18.816   5.037   0.490
74483W        W27379  18.159   5.549  10.237
74484W        W27380   6.202   0.891   9.453
74485W        W27381  29.469  10.402   8.605
74486W        W27382  16.742  26.971   2.921
74487W        W27383  13.393  23.266   9.122
74488W        W27384  15.661   6.434   0.876
74489W        W27385  30.242  24.809   2.446
74490W        W27386   7.092  26.625   8.778
74491W        W27387   3.878  34.190   1.025
74492W        W27388  31.985   4.051   1.600
74493W        W27389   1.860  12.034   7.671
74494W        W27390  23.307   7.726   9.677
74495W        W27391   3.450  18.798   9.379
74496W        W27392   8.228  35.459   7.891
74497W        W27393  25.915  31.111   8.726
74498W        W27394   6.729   8.182   8.584
74499W        W27395   1.958  29.470   0.526
74500W        W27396  29.788  30.330   2.284
74501W        W27397  12.612  13.059   0.649
74502W        W27398  21.102  31.518   2.912
74503W        W27399  25.912  25.467   2.860
74504W        W27400  25.194  19.669   2.492
74505W        W27401  26.002   2.366   0.799
74506W        W27402   8.349   5.964   3.001
74507W        W27403   1.012   7.851   1.378
74508W        W27404  11.901  14.851   1.969
74509W        W27405   7.920  29.494   7.160
74510W        W27406   3.022   0.937   2.163
74511W        W27407   5.499  17.326   1.324
74512W        W27408   2.081   1.156   1.312
74513W        W27409   5.938   9.581   0.706
74514W        W27410   0.148  18.738   8.703
74515W        W27411  23.112  15.605   1.514
74516W        W27412  30.804  18.534   8.340
74517W        W27413  35.745   8.532   2.896
74518W        W27414  27.413  23.036  10.266
74519W        W27415  25.379   0.962   8.935
74520W        W27416   4.049  20.546   8.129
74521W        W27417  31.042  20.261   6.886
74522W        W27418   0.572   5.055   2.253
74523W        W27419   0.222  32.590   3.340
74524W        W27420  21.812  24.604   0.074
74525W        W27421  24.967   2.797   0.750
74526W        W27422  30.586  14.415   1.606
74527W        W27423  15.052  30.562   8.166
74528W        W27424   6.129  15.078   2.244
74529W        W27425   0.671   2.488   1.430
74530W        W27426  15.772  32.264   6.911
74531W        W27427  16.980  21.356   8.935
74532W        W27428   5.395   1.951   9.828
74533W        W27429  35.900  32.807   2.115
74534W        W27430  24.009  16.815   2.332
74535W        W27431  19.600  23.651   0.812
74536W        W27432  29.962   9.604   3.597
74537W        W27433   8.695   3.245   9.456
74538W        W27434  23.281  25.009   7.694
74539W        W27435   8.179  26.090   9.751
74540W        W27436   5.404  25.644   7.402
74541W        W27437  15.180  32.697   3.046
74542W        W27438   9.603  24.828   8.543
74543W        W27439  22.546  32.735   7.555
74544W        W27440   4.296  14.989   2.061
74545W        W27441  30.291  20.580   1.755
74546W        W27442   1.977  31.105   1.234
74547W        W27443   7.636  19.709   1.059
74548W        W27444  24.568  19.011   9.869
74549W        W27445   9.797  32.290   2.722
74550W        W27446   4.666  30.089   9.497
74551W        W27447   0.285   3.755   8.344
74552W        W27448  30.920   3.714   9.017
74553W        W27449  17.716  29.054   7.572
74554W        W27450  14.637  30.887  10.043
74555W        W27451  27.252  33.591   8.263
74556W        W27452   2.270  13.000   2.201
74557W        W27453  26.605   5.721   1.147
74558W        W27454  34.656  27.728   7.997
74559W        W27455  17.508  19.502   0.703
74560W        W27456  32.245  31.321   0.035
74561W        W27457  19.645  26.226   9.382
74562W        W27458   6.261  21.148   8.273
74563W        W27459   4.025  31.802   9.024
74564W        W27460  22.155  32.457   7.906
74565W        W27461  29.172  20.811   8.920
74566W        W27462  35.729  35.240   3.065
74567W        W27463  25.404   4.330   0.738
74568W        W27464  20.471   0.215   8.710
74569W        W27465  17.107  13.035   7.224
74570W        W27466  10.911  23.702   7.942
74571W        W27467  26.633  32.480   0.203
74572W        W27468  34.418  26.093   8.956
74573W        W27469   0.589  21.917   9.041
74574W        W27470  32.881  17.080   2.126
74575W        W27471  15.640  16.730   2.418
74576W        W27472  26.808  33.480   8.721
74577W        W27473  13.922  18.628   1.001
74578W        W27474  10.637  31.862   8.198
74579W        W27475  20.645   3.499   0.476
74580W        W27476   6.961  20.630   1.558
74581W        W27477   4.368  32.014   0.593
74582W        W27478  21.462  32.295   3.353
74583W        W27479   4.056  10.949   0.053
74584W        W27480  24.087   8.974   3.102
74585W        W27481  19.492  35.197   9.333
74586W        W27482  17.631  33.744   1.699
74587W        W27483  31.985  34.685   1.323
74588W        W27484  20.007   2.885  10.082
74589W        W27485  12.029   4.337   0.481
74590W        W27486   7.226  26.354   0.943
74591W        W27487   3.009  16.929   8.726
74592W        W27488   1.202  23.366   0.219
74593W        W27489  14.949  28.952   3.527
74594W        W27490   3.212  23.801   9.334
74595W        W27491  21.801  15.610   2.356
74596W        W27492  12.756   3.189   8.451
74597W        W27493  29.025   4.315   3.672
74598W        W27494  13.537   5.004   9.463
74599W        W27495  25.289  17.950   7.536
74600W        W27496  30.037   1.986   9.710
74601W        W27497  31.934  23.156  10.065
74602W        W27498   3.912   1.943   3.418
74603W        W27499  27.986   1.362   3.545
74604W        W27500  26.353  13.360   1.862
74605W        W27501  21.478   8.390   2.215
74606W        W27502  19.321   0.220   8.509
74607W        W27503  14.491  18.921   1.719
74608W        W27504  34.065   8.103   8.018
74609W        W27505  10.562   8.288   0.391
74610W        W27506   2.404  29.039   2.489
74611W        W27507   2.664  24.020   0.392
74612W        W27508   6.230  35.565   8.903
74613W        W27509  28.178  33.885   1.638
74614W        W27510  10.265   4.746   7.858
74615W        W27511  20.453  15.007   2.118
74616W        W27512  28.781   0.938   1.053
74617W        W27513  35.823  34.815   2.185
74618W        W27514  13.919   7.860   9.399
74619W        W27515  25.213   6.918   2.134
74620W        W27516  26.970   1.886   1.108
74621W        W27517   1.960   1.153   3.012
74622W        W27518  18.767  10.264   1.853
74623W        W27519   2.262  19.823   3.288
74624W        W27520  17.404  33.471   1.353
74625W        W27521   1.568  32.922   8.175
74626W        W27522  17.720  26.740   9.596
74627W        W27523   2.855  25.866   1.655
74628W        W27524  23.189   8.943   8.593
74629W        W27525  23.463  33.317   2.203
74630W        W27526  22.603  17.137   8.766
74631W        W27527  24.418  33.676   9.625
74632W        W27528  28.477  18.180   1.227
74633W        W27529  30.259  25.540   0.903
74634W        W27530  27.041   3.755   7.830
74635W        W27531   1.453  30.912   3.292
74636W        W27532  35.284  18.059   9.542
74637W        W27533  35.013  21.529   9.535
74638W        W27534  13.585  35.043   8.203
74639W        W27535  23.612  23.998   2.913
74640W        W27536  20.255  21.940   3.245
74641W        W27537   5.378  22.604   8.483
74642W        W27538  12.744   6.056   1.298
74643W        W27539  11.875  29.204   0.539
74644W        W27540   1.331  13.066   3.090
74645W        W27541  23.592  23.734   1.346
74646W        W27542  12.527  11.330   1.692
74647W        W27543   8.993  12.731   8.132
74648W        W27544  21.273  24.820   0.241
74649W        W27545  16.686  29.041   0.479
74650W        W27546  22.730  26.029   0.613
74651W        W27547  27.950   8.991   3.806
74652W        W27548  16.399  17.215   0.802
74653W        W27549  21.926  14.484   7.929
74654W        W27550  23.868  15.276   1.907
74655W        W27551  29.350  16.684   1.625
74656W        W27552  23.484   7.286   9.517
74657W        W27553  12.973  14.495   1.161
74658W        W27554  34.211  30.226   8.825
74659W        W27555  26.439  17.778  10.193
74660W        W27556   3.959  18.022   1.420
74661W        W27557  21.667  12.937   0.521
74662W        W27558  29.284  26.028   2.062
74663W        W27559   0.689  33.415   7.457
74664W        W27560  31.266  11.645   6.963
74665W        W27561   0.652   4.825   7.854
74666W        W27562   5.533   4.530   6.959
74667W        W27563  17.863  13.339  10.058
74668W        W27564  18.371   4.605   9.344
74669W        W27565  34.738   1.145   2.793
74670W        W27566  20.640  13.416   7.662
74671W        W27567  26.696   7.904   3.080
74672W        W27568   1.926  16.384   8.657
74673W        W27569   7.096  27.850   9.507
74674W        W27570  24.435  18.112   0.033
74675W        W27571   2.216  20.327   2.022
74676W        W27572   1.620  29.552   3.453
74677W        W27573   2.058  27.955   9.879
  36.01440  36.01440  10.33840
